/*--------------------------------*- C++ -*----------------------------------*\
| =========                 |                                                 |
| \\      /  F ield         | OpenFOAM: The Open Source CFD Toolbox           |
|  \\    /   O peration     | Version:  2.4.0                                 |
|   \\  /    A nd           | Web:      www.OpenFOAM.org                      |
|    \\/     M anipulation  |                                                 |
\*---------------------------------------------------------------------------*/
FoamFile
{
    version     2.0;
    format      ascii;
    class       volVectorField;
    location    "0";
    object      cellCenter;
}
// * * * * * * * * * * * * * * * * * * * * * * * * * * * * * * * * * * * * * //

dimensions      [0 1 0 0 0 0 0];

internalField   nonuniform List<vector> 
513
(
(0.0124274 0.0124274 0.125)
(0.987573 0.0124274 0.125)
(0.987573 0.987573 0.125)
(0.0124274 0.987573 0.125)
(0.0526649 0.0105177 0.125)
(0.0998947 0.0103203 0.125)
(0.150721 0.0100783 0.125)
(0.19979 0.0108189 0.125)
(0.250118 0.0106345 0.125)
(0.300092 0.0110438 0.125)
(0.349317 0.010299 0.125)
(0.400086 0.0113441 0.125)
(0.448764 0.0126017 0.125)
(0.49963 0.0115464 0.125)
(0.55 0.0112263 0.125)
(0.599672 0.011051 0.125)
(0.649818 0.0111071 0.125)
(0.699794 0.0108319 0.125)
(0.75018 0.0109026 0.125)
(0.800075 0.0111566 0.125)
(0.85035 0.0110175 0.125)
(0.899677 0.011054 0.125)
(0.94787 0.0100762 0.125)
(0.989367 0.052962 0.125)
(0.989728 0.100016 0.125)
(0.989897 0.150803 0.125)
(0.989973 0.19909 0.125)
(0.98931 0.250487 0.125)
(0.987775 0.299043 0.125)
(0.988707 0.35003 0.125)
(0.988605 0.399781 0.125)
(0.987461 0.450368 0.125)
(0.987463 0.500709 0.125)
(0.988741 0.551195 0.125)
(0.990111 0.600135 0.125)
(0.990679 0.650091 0.125)
(0.989822 0.700178 0.125)
(0.988962 0.750251 0.125)
(0.987996 0.800994 0.125)
(0.989368 0.849591 0.125)
(0.989688 0.899997 0.125)
(0.989366 0.947038 0.125)
(0.94787 0.989924 0.125)
(0.899647 0.988966 0.125)
(0.849946 0.988802 0.125)
(0.8 0.988774 0.125)
(0.75 0.988774 0.125)
(0.7 0.988774 0.125)
(0.65 0.988774 0.125)
(0.6 0.988774 0.125)
(0.55 0.988774 0.125)
(0.5 0.988774 0.125)
(0.45 0.988774 0.125)
(0.4 0.988774 0.125)
(0.35 0.988774 0.125)
(0.3 0.988774 0.125)
(0.25 0.988774 0.125)
(0.2 0.988774 0.125)
(0.150068 0.98881 0.125)
(0.100384 0.98911 0.125)
(0.0520023 0.990073 0.125)
(0.0105104 0.947327 0.125)
(0.0101432 0.900091 0.125)
(0.0100283 0.849036 0.125)
(0.0100875 0.801224 0.125)
(0.0105823 0.750416 0.125)
(0.0119691 0.701346 0.125)
(0.0111692 0.650215 0.125)
(0.0107148 0.600573 0.125)
(0.0103423 0.550555 0.125)
(0.0118402 0.500156 0.125)
(0.0124265 0.450389 0.125)
(0.0114087 0.399882 0.125)
(0.0110909 0.350068 0.125)
(0.0110682 0.299943 0.125)
(0.0111418 0.250076 0.125)
(0.0109502 0.200516 0.125)
(0.0118604 0.150302 0.125)
(0.0119569 0.100782 0.125)
(0.0100779 0.0518838 0.125)
(0.475 0.956699 0.125)
(0.0497234 0.477434 0.125)
(0.524017 0.0445313 0.125)
(0.955325 0.530719 0.125)
(0.0438124 0.676105 0.125)
(0.675 0.956699 0.125)
(0.324554 0.0475104 0.125)
(0.95501 0.324472 0.125)
(0.325 0.956699 0.125)
(0.0429052 0.324868 0.125)
(0.963621 0.674201 0.125)
(0.67659 0.0465788 0.125)
(0.824937 0.956725 0.125)
(0.0452937 0.825713 0.125)
(0.0412566 0.178179 0.125)
(0.826863 0.0418084 0.125)
(0.175068 0.956723 0.125)
(0.952338 0.829101 0.125)
(0.955166 0.174817 0.125)
(0.17519 0.0473531 0.125)
(0.419469 0.049291 0.125)
(0.955296 0.423183 0.125)
(0.0385007 0.57648 0.125)
(0.575 0.956699 0.125)
(0.922786 0.958059 0.125)
(0.0460783 0.919066 0.125)
(0.0411903 0.0760935 0.125)
(0.922839 0.0419587 0.125)
(0.425 0.956699 0.125)
(0.45 0.913397 0.125)
(0.4 0.913397 0.125)
(0.425 0.870096 0.125)
(0.475 0.870096 0.125)
(0.45 0.826795 0.125)
(0.5 0.826795 0.125)
(0.475 0.783494 0.125)
(0.525 0.783494 0.125)
(0.5 0.740192 0.125)
(0.45 0.740192 0.125)
(0.475 0.696891 0.125)
(0.525 0.696891 0.125)
(0.5 0.65359 0.125)
(0.55 0.65359 0.125)
(0.525 0.610289 0.125)
(0.475 0.610289 0.125)
(0.5 0.566987 0.125)
(0.55 0.566987 0.125)
(0.525 0.523686 0.125)
(0.475 0.523686 0.125)
(0.5 0.480385 0.125)
(0.45 0.480385 0.125)
(0.55 0.480385 0.125)
(0.475 0.437083 0.125)
(0.425 0.437083 0.125)
(0.4 0.480385 0.125)
(0.375 0.437083 0.125)
(0.45 0.393782 0.125)
(0.35 0.480385 0.125)
(0.325 0.437083 0.125)
(0.300001 0.480385 0.125)
(0.275001 0.437084 0.125)
(0.3 0.393782 0.125)
(0.325 0.523686 0.125)
(0.275001 0.523687 0.125)
(0.3 0.566987 0.125)
(0.250005 0.566986 0.125)
(0.275 0.610289 0.125)
(0.25 0.393782 0.125)
(0.275 0.350481 0.125)
(0.575 0.696891 0.125)
(0.6 0.65359 0.125)
(0.625 0.696891 0.125)
(0.65 0.65359 0.125)
(0.675 0.696891 0.125)
(0.7 0.65359 0.125)
(0.725 0.696891 0.125)
(0.75 0.65359 0.125)
(0.725 0.610289 0.125)
(0.5 0.393782 0.125)
(0.475 0.350481 0.125)
(0.525 0.350481 0.125)
(0.5 0.30718 0.125)
(0.55 0.30718 0.125)
(0.524991 0.263914 0.125)
(0.475 0.263878 0.125)
(0.575001 0.263944 0.125)
(0.6 0.30718 0.125)
(0.625006 0.263915 0.125)
(0.65 0.30718 0.125)
(0.675 0.263887 0.125)
(0.7 0.30718 0.125)
(0.724999 0.26388 0.125)
(0.749974 0.307187 0.125)
(0.725 0.350481 0.125)
(0.4 0.826795 0.125)
(0.65 0.740192 0.125)
(0.775 0.696891 0.125)
(0.75 0.740192 0.125)
(0.774618 0.264136 0.125)
(0.749676 0.220695 0.125)
(0.599918 0.220768 0.125)
(0.775 0.610289 0.125)
(0.75 0.566987 0.125)
(0.77498 0.3505 0.125)
(0.225002 0.610287 0.125)
(0.25 0.65359 0.125)
(0.225097 0.523666 0.125)
(0.225013 0.350494 0.125)
(0.250018 0.307185 0.125)
(0.3 0.30718 0.125)
(0.275 0.263878 0.125)
(0.225116 0.263914 0.125)
(0.25 0.220578 0.125)
(0.299989 0.220593 0.125)
(0.499854 0.220682 0.125)
(0.799929 0.740124 0.125)
(0.774891 0.783454 0.125)
(0.200001 0.393783 0.125)
(0.425 0.696891 0.125)
(0.75 0.393782 0.125)
(0.7 0.393782 0.125)
(0.20044 0.220734 0.125)
(0.797484 0.222002 0.125)
(0.8 0.566987 0.125)
(0.200044 0.65355 0.125)
(0.225022 0.696875 0.125)
(0.799995 0.393777 0.125)
(0.275 0.696891 0.125)
(0.25 0.740192 0.125)
(0.199952 0.740105 0.125)
(0.224947 0.783477 0.125)
(0.7 0.566987 0.125)
(0.44975 0.220804 0.125)
(0.55 0.826795 0.125)
(0.225006 0.177312 0.125)
(0.774674 0.177503 0.125)
(0.724931 0.177343 0.125)
(0.472952 0.178217 0.125)
(0.424563 0.176694 0.125)
(0.825 0.610289 0.125)
(0.176093 0.264298 0.125)
(0.82134 0.265943 0.125)
(0.174726 0.177693 0.125)
(0.825677 0.180695 0.125)
(0.174745 0.783239 0.125)
(0.824487 0.783639 0.125)
(0.175215 0.610208 0.125)
(0.19988 0.826735 0.125)
(0.249988 0.82679 0.125)
(0.35 0.566987 0.125)
(0.3 0.740192 0.125)
(0.425 0.350481 0.125)
(0.725 0.523686 0.125)
(0.675 0.523686 0.125)
(0.799791 0.82688 0.125)
(0.749974 0.826784 0.125)
(0.749167 0.134115 0.125)
(0.15012 0.739663 0.125)
(0.851109 0.740975 0.125)
(0.850919 0.566547 0.125)
(0.824753 0.523607 0.125)
(0.149486 0.826561 0.125)
(0.849421 0.828577 0.125)
(0.224977 0.870087 0.125)
(0.325 0.696891 0.125)
(0.625 0.350481 0.125)
(0.424995 0.263881 0.125)
(0.4 0.740192 0.125)
(0.824511 0.35077 0.125)
(0.850882 0.393992 0.125)
(0.625 0.610289 0.125)
(0.55 0.393782 0.125)
(0.14925 0.653247 0.125)
(0.526218 0.174931 0.125)
(0.175009 0.350486 0.125)
(0.14905 0.394029 0.125)
(0.175208 0.43715 0.125)
(0.774988 0.437077 0.125)
(0.274996 0.870094 0.125)
(0.299997 0.826794 0.125)
(0.774954 0.870104 0.125)
(0.724992 0.870092 0.125)
(0.699995 0.826792 0.125)
(0.674998 0.870095 0.125)
(0.649999 0.826794 0.125)
(0.624999 0.870096 0.125)
(0.70078 0.13416 0.125)
(0.874993 0.609391 0.125)
(0.44942 0.129754 0.125)
(0.397895 0.134259 0.125)
(0.200098 0.134453 0.125)
(0.149512 0.134227 0.125)
(0.249992 0.134027 0.125)
(0.126381 0.43765 0.125)
(0.151063 0.480185 0.125)
(0.0935697 0.396016 0.125)
(0.12581 0.608619 0.125)
(0.151395 0.566323 0.125)
(0.575 0.783494 0.125)
(0.849552 0.653713 0.125)
(0.674522 0.176432 0.125)
(0.653894 0.130622 0.125)
(0.374717 0.177426 0.125)
(0.349591 0.134023 0.125)
(0.7 0.480385 0.125)
(0.65 0.480385 0.125)
(0.625 0.523686 0.125)
(0.249997 0.913396 0.125)
(0.324999 0.870096 0.125)
(0.749992 0.913395 0.125)
(0.874159 0.351042 0.125)
(0.123026 0.179131 0.125)
(0.873617 0.522279 0.125)
(0.849447 0.480079 0.125)
(0.101329 0.131335 0.125)
(0.896983 0.47917 0.125)
(0.224987 0.0856401 0.125)
(0.724901 0.0858838 0.125)
(0.372049 0.0848031 0.125)
(0.12654 0.0837122 0.125)
(0.772076 0.0946412 0.125)
(0.279739 0.089637 0.125)
(0.906269 0.395731 0.125)
(0.0931982 0.650779 0.125)
(0.895816 0.652669 0.125)
(0.92182 0.611661 0.125)
(0.106809 0.561961 0.125)
(0.103456 0.479957 0.125)
(0.200001 0.913397 0.125)
(0.375 0.956699 0.125)
(0.0446675 0.42349 0.125)
(0.0431871 0.374829 0.125)
(0.674999 0.783493 0.125)
(0.525 0.956699 0.125)
(0.55 0.913397 0.125)
(0.0398281 0.528007 0.125)
(0.200109 0.480345 0.125)
(0.574716 0.0431876 0.125)
(0.54949 0.0874755 0.125)
(0.596402 0.0856659 0.125)
(0.572182 0.136906 0.125)
(0.495291 0.0925877 0.125)
(0.6 0.826795 0.125)
(0.375 0.696891 0.125)
(0.4 0.65359 0.125)
(0.35 0.65359 0.125)
(0.62307 0.0416394 0.125)
(0.950203 0.477125 0.125)
(0.473509 0.0449718 0.125)
(0.35 0.740192 0.125)
(0.0439479 0.275643 0.125)
(0.0935747 0.302889 0.125)
(0.0837162 0.250451 0.125)
(0.625 0.783493 0.125)
(0.0481097 0.127525 0.125)
(0.874555 0.956888 0.125)
(0.900146 0.914912 0.125)
(0.953547 0.918736 0.125)
(0.924297 0.874409 0.125)
(0.849745 0.913865 0.125)
(0.958151 0.724153 0.125)
(0.956432 0.774839 0.125)
(0.918056 0.794749 0.125)
(0.908031 0.744469 0.125)
(0.125387 0.957121 0.125)
(0.149998 0.913562 0.125)
(0.0993264 0.914925 0.125)
(0.124651 0.870369 0.125)
(0.0747368 0.871729 0.125)
(0.0983513 0.826335 0.125)
(0.0751567 0.78094 0.125)
(0.124606 0.782731 0.125)
(0.100777 0.739127 0.125)
(0.0476845 0.731692 0.125)
(0.875099 0.0429571 0.125)
(0.900507 0.086009 0.125)
(0.953453 0.0817629 0.125)
(0.92514 0.128943 0.125)
(0.878657 0.128155 0.125)
(0.904359 0.172947 0.125)
(0.925989 0.219441 0.125)
(0.875473 0.213429 0.125)
(0.903546 0.256717 0.125)
(0.0419076 0.226065 0.125)
(0.5 0.913397 0.125)
(0.274977 0.17733 0.125)
(0.375 0.610289 0.125)
(0.675 0.350481 0.125)
(0.65 0.393782 0.125)
(0.6 0.393782 0.125)
(0.853356 0.0852946 0.125)
(0.375 0.523686 0.125)
(0.425 0.523686 0.125)
(0.225005 0.437087 0.125)
(0.65 0.566987 0.125)
(0.250008 0.480388 0.125)
(0.325 0.350481 0.125)
(0.349999 0.307181 0.125)
(0.324997 0.26388 0.125)
(0.699999 0.740192 0.125)
(0.375 0.783494 0.125)
(0.325 0.610289 0.125)
(0.12428 0.350309 0.125)
(0.324999 0.783493 0.125)
(0.956508 0.374763 0.125)
(0.200087 0.566955 0.125)
(0.950406 0.27117 0.125)
(0.724996 0.783491 0.125)
(0.799431 0.307432 0.125)
(0.0430945 0.625921 0.125)
(0.906793 0.562954 0.125)
(0.45 0.566987 0.125)
(0.45 0.30718 0.125)
(0.6 0.740192 0.125)
(0.625 0.956699 0.125)
(0.774997 0.523684 0.125)
(0.35 0.393782 0.125)
(0.575 0.610289 0.125)
(0.45 0.65359 0.125)
(0.399943 0.220624 0.125)
(0.425 0.783494 0.125)
(0.55 0.740192 0.125)
(0.3 0.65359 0.125)
(0.128468 0.521987 0.125)
(0.525 0.437083 0.125)
(0.549617 0.221736 0.125)
(0.847897 0.308172 0.125)
(0.20012 0.30728 0.125)
(0.675 0.610289 0.125)
(0.175205 0.69669 0.125)
(0.274998 0.783493 0.125)
(0.17571 0.523469 0.125)
(0.575 0.350481 0.125)
(0.69999 0.220596 0.125)
(0.425 0.610289 0.125)
(0.8 0.65359 0.125)
(0.4 0.393782 0.125)
(0.79596 0.132809 0.125)
(0.575 0.437083 0.125)
(0.153116 0.221477 0.125)
(0.349999 0.826795 0.125)
(0.4 0.566987 0.125)
(0.375 0.350481 0.125)
(0.649294 0.219478 0.125)
(0.525 0.870096 0.125)
(0.174914 0.87007 0.125)
(0.620515 0.170955 0.125)
(0.725 0.437083 0.125)
(0.399999 0.30718 0.125)
(0.6 0.566987 0.125)
(0.825003 0.696995 0.125)
(0.149463 0.306957 0.125)
(0.575 0.523686 0.125)
(0.375 0.870096 0.125)
(0.37499 0.263886 0.125)
(0.299821 0.134485 0.125)
(0.875507 0.697957 0.125)
(0.349985 0.220592 0.125)
(0.32494 0.177392 0.125)
(0.6 0.480385 0.125)
(0.6 0.913397 0.125)
(0.575 0.870096 0.125)
(0.625 0.437083 0.125)
(0.749994 0.480383 0.125)
(0.649999 0.913397 0.125)
(0.675 0.437083 0.125)
(0.699998 0.913396 0.125)
(0.799945 0.480364 0.125)
(0.824953 0.437045 0.125)
(0.874148 0.437244 0.125)
(0.724999 0.956698 0.125)
(0.35 0.913397 0.125)
(0.774997 0.9567 0.125)
(0.299999 0.913397 0.125)
(0.274999 0.956698 0.125)
(0.799948 0.91344 0.125)
(0.224999 0.956698 0.125)
(0.824749 0.870602 0.125)
(0.874366 0.87282 0.125)
(0.12579 0.696092 0.125)
(0.957726 0.579443 0.125)
(0.773323 0.0468457 0.125)
(0.724931 0.0378035 0.125)
(0.450804 0.0832109 0.125)
(0.526816 0.127046 0.125)
(0.67781 0.0943984 0.125)
(0.573703 0.184746 0.125)
(0.373578 0.036619 0.125)
(0.324654 0.0957991 0.125)
(0.270213 0.043688 0.125)
(0.224983 0.037542 0.125)
(0.175072 0.0957938 0.125)
(0.125957 0.0353411 0.125)
(0.901773 0.30526 0.125)
(0.0769796 0.958826 0.125)
(0.0807753 0.0460332 0.125)
(0.0805339 0.203969 0.125)
(0.874177 0.786665 0.125)
(0.128587 0.263443 0.125)
(0.922398 0.691968 0.125)
(0.0797061 0.349974 0.125)
(0.918612 0.350659 0.125)
(0.0820786 0.698838 0.125)
(0.079646 0.0932014 0.125)
(0.079819 0.597787 0.125)
(0.964241 0.626076 0.125)
(0.0834015 0.442773 0.125)
(0.916929 0.442286 0.125)
(0.033097 0.873493 0.125)
(0.966015 0.874543 0.125)
(0.966626 0.126632 0.125)
(0.083425 0.518812 0.125)
(0.916566 0.51463 0.125)
(0.966736 0.223772 0.125)
(0.0335795 0.777875 0.125)
(0.898885 0.833049 0.125)
(0.864999 0.26487 0.125)
(0.837693 0.228959 0.125)
(0.964741 0.964524 0.125)
(0.0351745 0.0348432 0.125)
(0.0350838 0.964941 0.125)
(0.964742 0.0354766 0.125)
(0.639697 0.0834865 0.125)
(0.492095 0.140997 0.125)
(0.41691 0.0969365 0.125)
(0.615643 0.121898 0.125)
(0.863397 0.165386 0.125)
(0.836497 0.128794 0.125)
(0.810565 0.084827 0.125)
(0.0791622 0.164572 0.125)
(0.113866 0.223742 0.125)
(0.934124 0.650015 0.125)
(0.0697202 0.555307 0.125)
)
;

boundaryField
{
    back
    {
        type            empty;
    }
    front
    {
        type            empty;
    }
    top
    {
        type            calculated;
        value           uniform (0 0 0);
    }
    left
    {
        type            calculated;
        value           uniform (0 0 0);
    }
    bottom
    {
        type            calculated;
        value           uniform (0 0 0);
    }
    right
    {
        type            calculated;
        value           uniform (0 0 0);
    }
}


// ************************************************************************* //
