/*--------------------------------*- C++ -*----------------------------------*\
| =========                 |                                                 |
| \\      /  F ield         | OpenFOAM: The Open Source CFD Toolbox           |
|  \\    /   O peration     | Version:  2.4.0                                 |
|   \\  /    A nd           | Web:      www.OpenFOAM.org                      |
|    \\/     M anipulation  |                                                 |
\*---------------------------------------------------------------------------*/
FoamFile
{
    version     2.0;
    format      ascii;
    class       volScalarField;
    location    "0";
    object      cellVolume;
}
// * * * * * * * * * * * * * * * * * * * * * * * * * * * * * * * * * * * * * //

dimensions      [0 3 0 0 0 0 0];

internalField   nonuniform List<scalar> 
513
(
0.000161814
0.000161814
0.000161814
0.000161814
0.000246059
0.000245622
0.000241962
0.000260759
0.00025635
0.000266223
0.000246755
0.000270016
0.000306632
0.000279838
0.000270633
0.000264718
0.00026945
0.000261055
0.000262427
0.000271055
0.000263877
0.000264818
0.000234581
0.00025
0.000242999
0.000242052
0.000241215
0.000252741
0.000299613
0.000271793
0.000272575
0.000306835
0.000305659
0.000271138
0.000234644
0.000224155
0.000245778
0.000266793
0.000292694
0.000251727
0.000243675
0.000250017
0.000234581
0.000264624
0.000269664
0.000270636
0.000270637
0.000270634
0.000270633
0.000270633
0.000270633
0.000270633
0.000270633
0.000270633
0.000270633
0.000270635
0.000270634
0.000270633
0.000269404
0.000261535
0.000231032
0.000245971
0.000242005
0.000239333
0.000240265
0.000251341
0.000295443
0.000267947
0.000258504
0.000247314
0.000286889
0.000303085
0.000273574
0.000267364
0.00026682
0.000268206
0.000261781
0.000286269
0.00029048
0.000233158
0.000541266
0.000699704
0.000578583
0.000559498
0.00056519
0.000541263
0.00072828
0.000578934
0.000541272
0.000536726
0.000436623
0.000687392
0.000539702
0.000661853
0.000477525
0.000506869
0.000539546
0.000664107
0.000666082
0.000738958
0.000671969
0.000554588
0.000447979
0.000541266
0.000493826
0.000641452
0.000467406
0.000492735
0.000541266
0.000541266
0.000541267
0.000541267
0.000541266
0.000541266
0.000541266
0.000541266
0.000541266
0.000541266
0.000541266
0.000541266
0.000541266
0.000541266
0.000541266
0.000541266
0.000541266
0.000541266
0.000541266
0.000541266
0.000541266
0.000541266
0.000541266
0.000541266
0.000541266
0.000541266
0.000541266
0.000541266
0.000541266
0.000541266
0.000541266
0.000541241
0.000541245
0.000541266
0.000541266
0.000541241
0.000541266
0.000541145
0.000541266
0.000541266
0.000541266
0.000541266
0.000541266
0.000541266
0.000541266
0.000541265
0.000541266
0.000541266
0.000541266
0.000541266
0.000541266
0.000541266
0.000541266
0.000541266
0.000541266
0.000540408
0.000541266
0.000539674
0.000541266
0.000540371
0.000541266
0.00054106
0.000541266
0.000541245
0.000540627
0.000541266
0.000541268
0.000541262
0.000541266
0.000541266
0.000530549
0.000533271
0.000535438
0.000541266
0.000541266
0.000540627
0.000541266
0.000541266
0.000538863
0.000540833
0.000540833
0.000541266
0.000541266
0.000538668
0.000541245
0.000540782
0.000541258
0.000538953
0.000538581
0.000541287
0.000541266
0.000541266
0.000541266
0.000531839
0.000489564
0.000541266
0.000539737
0.000540724
0.000541089
0.000541266
0.000541259
0.000542451
0.000542388
0.000541266
0.000534365
0.000541265
0.000540408
0.000548048
0.000539264
0.000517934
0.000553897
0.000541266
0.000518463
0.000455665
0.000551845
0.000650154
0.000545332
0.000537912
0.000536455
0.000543885
0.00054144
0.000541266
0.000541265
0.000541266
0.000541266
0.000541266
0.000538986
0.000540834
0.000518556
0.000535221
0.000570624
0.000566609
0.000535971
0.000552061
0.000543837
0.000541731
0.000541266
0.000541266
0.000541299
0.000541266
0.000527514
0.000563016
0.000541266
0.000541266
0.000561889
0.000666841
0.000541266
0.000566854
0.000536839
0.000540938
0.000541329
0.0005413
0.000540715
0.000541195
0.000541185
0.00054124
0.000541246
0.00054126
0.000516834
0.000547866
0.00062319
0.000521702
0.000532125
0.00055684
0.000541082
0.000511394
0.00051515
0.000692752
0.000541033
0.000516967
0.000541265
0.000533548
0.00056222
0.000492356
0.000535602
0.000534941
0.000541266
0.000541266
0.000541266
0.000541305
0.000541283
0.000541208
0.000538709
0.000613253
0.000512503
0.000529092
0.000499584
0.000463942
0.0007488
0.000736762
0.000698133
0.000729132
0.000355356
0.000575661
0.000682651
0.000736356
0.000457051
0.000463719
0.000438566
0.000475641
0.000541163
0.000541267
0.000553684
0.000527509
0.000541238
0.000541266
0.000541266
0.000462384
0.000538571
0.00053344
0.000567502
0.000476124
0.000689512
0.000661297
0.000541261
0.000541266
0.000541266
0.000541266
0.00049868
0.000690415
0.000562319
0.000541266
0.000563015
0.000738814
0.000476857
0.000541259
0.000652573
0.000532931
0.000534498
0.000630196
0.000499967
0.000529844
0.000545999
0.000554614
0.000369546
0.000756661
0.000531813
0.000541741
0.000559842
0.000551387
0.00055766
0.000577131
0.000541654
0.000545509
0.000522174
0.000692197
0.000521846
0.000551858
0.000642555
0.000540794
0.000450756
0.000523817
0.000537246
0.000635245
0.000371456
0.000499114
0.000541266
0.000539892
0.000541266
0.000541266
0.000541266
0.000541266
0.000471671
0.000541266
0.000541266
0.000541291
0.000541266
0.000541118
0.000541266
0.000541233
0.000541195
0.000541252
0.000541267
0.000541266
0.000567227
0.000541271
0.000526203
0.000540345
0.00072708
0.000541205
0.000527894
0.000546779
0.000722463
0.000541266
0.000541266
0.000541265
0.000541266
0.000541266
0.000541266
0.000541266
0.000541266
0.000540154
0.000541266
0.000541266
0.000541266
0.00048268
0.000541266
0.000514452
0.000516759
0.000538668
0.000541266
0.00053612
0.000541257
0.000528603
0.000541266
0.000540966
0.000541266
0.000541266
0.000541266
0.000509744
0.000541266
0.000484817
0.000541274
0.000541266
0.000541266
0.000573648
0.000541265
0.00054298
0.000706058
0.000541266
0.000541266
0.000541266
0.000541346
0.000559804
0.000541266
0.000541271
0.000541069
0.000530974
0.000567025
0.000540889
0.000538979
0.000541266
0.000541265
0.000541264
0.000541266
0.000541115
0.00054126
0.000541266
0.000541253
0.000540358
0.000540358
0.000512416
0.00054127
0.000541273
0.000541216
0.000541285
0.000541275
0.000539863
0.000541271
0.000534607
0.000506711
0.000526913
0.000525506
0.000690201
0.000404268
0.000323708
0.000365756
0.000358243
0.000376313
0.000383674
0.00040412
0.00057
0.000403579
0.000408447
0.000379787
0.000708902
0.000485594
0.000622845
0.000407377
0.000555716
0.000483944
0.000497171
0.000369395
0.000363965
0.000366466
0.000349842
0.000483808
0.00041425
0.000344678
0.000339078
0.000339365
0.000329721
0.000336231
0.000440177
0.000342027
0.000339773
0.000335959
0.000521245
0.00045605
0.000306521
0.000317888
0.000306405
0.000311178
0.000317899
0.000436676
0.000329101
0.000315133
0.000323674
0.000306178
0.00043989
0.00045657
0.000305847
0.000284051
0.000265706
0.000260334
)
;

boundaryField
{
    back
    {
        type            empty;
    }
    front
    {
        type            empty;
    }
    top
    {
        type            calculated;
        value           uniform 0;
    }
    left
    {
        type            calculated;
        value           uniform 0;
    }
    bottom
    {
        type            calculated;
        value           uniform 0;
    }
    right
    {
        type            calculated;
        value           uniform 0;
    }
}


// ************************************************************************* //
