/*--------------------------------*- C++ -*----------------------------------*\
| =========                 |                                                 |
| \\      /  F ield         | OpenFOAM: The Open Source CFD Toolbox           |
|  \\    /   O peration     | Version:  2.4.0                                 |
|   \\  /    A nd           | Web:      www.OpenFOAM.org                      |
|    \\/     M anipulation  |                                                 |
\*---------------------------------------------------------------------------*/
FoamFile
{
    version     2.0;
    format      ascii;
    class       surfaceVectorField;
    location    "0";
    object      faceCenter;
}
// * * * * * * * * * * * * * * * * * * * * * * * * * * * * * * * * * * * * * //

dimensions      [0 1 0 0 0 0 0];

internalField   nonuniform List<vector> 
1456
(
(0.0269338 0.00610042 0.125)
(0.00610042 0.0269338 0.125)
(0.0205342 0.0205342 0.125)
(0.973066 0.00610042 0.125)
(0.9939 0.0269338 0.125)
(0.979466 0.0205342 0.125)
(0.9939 0.973066 0.125)
(0.973066 0.9939 0.125)
(0.979466 0.979466 0.125)
(0.0269338 0.9939 0.125)
(0.00610042 0.973066 0.125)
(0.0205342 0.979466 0.125)
(0.075749 0.00755858 0.125)
(0.0659317 0.0212176 0.125)
(0.0421165 0.0197594 0.125)
(0.125104 0.00572796 0.125)
(0.113458 0.0190145 0.125)
(0.0891024 0.0208451 0.125)
(0.175 0.00721688 0.125)
(0.162604 0.0201617 0.125)
(0.137709 0.0186728 0.125)
(0.225 0.00669028 0.125)
(0.1875 0.021124 0.125)
(0.2125 0.0205974 0.125)
(0.275 0.0069817 0.125)
(0.2625 0.0206537 0.125)
(0.2375 0.0203623 0.125)
(0.325 0.00721688 0.125)
(0.3125 0.0214155 0.125)
(0.2875 0.0211803 0.125)
(0.374759 0.00603631 0.125)
(0.337259 0.0204701 0.125)
(0.362017 0.0192895 0.125)
(0.424124 0.00853675 0.125)
(0.410506 0.0231098 0.125)
(0.386141 0.0206094 0.125)
(0.474707 0.00759522 0.125)
(0.435455 0.0246687 0.125)
(0.461039 0.0237272 0.125)
(0.525 0.00721688 0.125)
(0.512207 0.022029 0.125)
(0.486915 0.0224073 0.125)
(0.575 0.00721688 0.125)
(0.5375 0.0216506 0.125)
(0.5625 0.0216506 0.125)
(0.624672 0.00702761 0.125)
(0.587172 0.0214614 0.125)
(0.611844 0.0212721 0.125)
(0.675 0.00721688 0.125)
(0.662172 0.0214614 0.125)
(0.636844 0.0212721 0.125)
(0.724996 0.00670755 0.125)
(0.687496 0.0211413 0.125)
(0.712492 0.020632 0.125)
(0.774926 0.00731353 0.125)
(0.762348 0.0213346 0.125)
(0.737418 0.0207286 0.125)
(0.825334 0.00698502 0.125)
(0.813093 0.0212836 0.125)
(0.787686 0.0216121 0.125)
(0.875 0.00721688 0.125)
(0.838167 0.0211869 0.125)
(0.862834 0.0214188 0.125)
(0.924678 0.0070308 0.125)
(0.911855 0.0212785 0.125)
(0.887178 0.0214646 0.125)
(0.934922 0.020162 0.125)
(0.95831 0.0192316 0.125)
(0.992325 0.076074 0.125)
(0.978549 0.0665817 0.125)
(0.980124 0.0424415 0.125)
(0.994435 0.125094 0.125)
(0.979085 0.0897425 0.125)
(0.981195 0.113763 0.125)
(0.992595 0.174923 0.125)
(0.979626 0.162441 0.125)
(0.981465 0.137612 0.125)
(0.994562 0.225 0.125)
(0.979753 0.187347 0.125)
(0.981719 0.212423 0.125)
(0.991708 0.274135 0.125)
(0.977977 0.26077 0.125)
(0.980832 0.236635 0.125)
(0.992688 0.325086 0.125)
(0.977084 0.311807 0.125)
(0.976104 0.285856 0.125)
(0.992783 0.375 0.125)
(0.97816 0.337672 0.125)
(0.978254 0.362586 0.125)
(0.992522 0.42459 0.125)
(0.977827 0.411681 0.125)
(0.978088 0.38709 0.125)
(0.991465 0.475413 0.125)
(0.976509 0.437094 0.125)
(0.975451 0.462917 0.125)
(0.992501 0.525951 0.125)
(0.976467 0.514816 0.125)
(0.975431 0.489278 0.125)
(0.993021 0.575843 0.125)
(0.978023 0.540245 0.125)
(0.978544 0.565136 0.125)
(0.994204 0.625 0.125)
(0.980246 0.589185 0.125)
(0.981429 0.613343 0.125)
(0.993804 0.674879 0.125)
(0.981811 0.662258 0.125)
(0.982212 0.637379 0.125)
(0.993126 0.72498 0.125)
(0.980733 0.687238 0.125)
(0.980055 0.712339 0.125)
(0.9927 0.775129 0.125)
(0.978952 0.737589 0.125)
(0.978526 0.762738 0.125)
(0.991943 0.825793 0.125)
(0.976586 0.814216 0.125)
(0.977343 0.788551 0.125)
(0.994376 0.874958 0.125)
(0.978261 0.839045 0.125)
(0.980694 0.863209 0.125)
(0.992324 0.923927 0.125)
(0.979023 0.910311 0.125)
(0.981075 0.886343 0.125)
(0.978547 0.93342 0.125)
(0.980123 0.957559 0.125)
(0.924678 0.992969 0.125)
(0.934922 0.979838 0.125)
(0.95831 0.980768 0.125)
(0.874946 0.992814 0.125)
(0.911802 0.978753 0.125)
(0.88707 0.978597 0.125)
(0.825 0.992783 0.125)
(0.837446 0.97838 0.125)
(0.862393 0.978411 0.125)
(0.775 0.992783 0.125)
(0.8125 0.978349 0.125)
(0.7875 0.978349 0.125)
(0.725 0.992783 0.125)
(0.737499 0.978349 0.125)
(0.762499 0.978349 0.125)
(0.675 0.992783 0.125)
(0.6875 0.978349 0.125)
(0.7125 0.978349 0.125)
(0.625 0.992783 0.125)
(0.6625 0.978349 0.125)
(0.6375 0.978349 0.125)
(0.575 0.992783 0.125)
(0.5875 0.978349 0.125)
(0.6125 0.978349 0.125)
(0.525 0.992783 0.125)
(0.5625 0.978349 0.125)
(0.5375 0.978349 0.125)
(0.475 0.992783 0.125)
(0.4875 0.978349 0.125)
(0.5125 0.978349 0.125)
(0.425 0.992783 0.125)
(0.4625 0.978349 0.125)
(0.4375 0.978349 0.125)
(0.375 0.992783 0.125)
(0.4125 0.978349 0.125)
(0.3875 0.978349 0.125)
(0.325 0.992783 0.125)
(0.3375 0.978349 0.125)
(0.3625 0.978349 0.125)
(0.275 0.992783 0.125)
(0.3125 0.978349 0.125)
(0.2875 0.978349 0.125)
(0.225 0.992783 0.125)
(0.2625 0.978349 0.125)
(0.2375 0.978349 0.125)
(0.175 0.992783 0.125)
(0.1875 0.978349 0.125)
(0.2125 0.978349 0.125)
(0.125068 0.992822 0.125)
(0.162568 0.978389 0.125)
(0.137636 0.978428 0.125)
(0.0752556 0.993156 0.125)
(0.112892 0.978801 0.125)
(0.0880793 0.979134 0.125)
(0.064945 0.980212 0.125)
(0.0416231 0.980955 0.125)
(0.00754748 0.924235 0.125)
(0.0211954 0.934036 0.125)
(0.0197483 0.957867 0.125)
(0.00548194 0.874748 0.125)
(0.0205769 0.910718 0.125)
(0.0185114 0.886232 0.125)
(0.00740563 0.825081 0.125)
(0.0202932 0.837411 0.125)
(0.0183695 0.862078 0.125)
(0.00557473 0.775482 0.125)
(0.020386 0.813145 0.125)
(0.0185551 0.788545 0.125)
(0.00802317 0.726343 0.125)
(0.0216211 0.740668 0.125)
(0.0191726 0.764807 0.125)
(0.00721688 0.675 0.125)
(0.0224569 0.688843 0.125)
(0.0232632 0.715186 0.125)
(0.00717179 0.625255 0.125)
(0.0216055 0.662755 0.125)
(0.0215605 0.63801 0.125)
(0.00659523 0.575183 0.125)
(0.0203623 0.58812 0.125)
(0.0209388 0.613192 0.125)
(0.0067453 0.525614 0.125)
(0.0199358 0.563479 0.125)
(0.0200858 0.538911 0.125)
(0.00841109 0.475365 0.125)
(0.0235675 0.488844 0.125)
(0.0219017 0.514093 0.125)
(0.00748187 0.424719 0.125)
(0.0243041 0.462948 0.125)
(0.0233748 0.437303 0.125)
(0.00721688 0.375 0.125)
(0.0221806 0.411938 0.125)
(0.0219156 0.387219 0.125)
(0.00704256 0.325 0.125)
(0.021302 0.3375 0.125)
(0.0214763 0.3625 0.125)
(0.00718783 0.275 0.125)
(0.0212729 0.3125 0.125)
(0.0214182 0.2875 0.125)
(0.00714569 0.225076 0.125)
(0.0215213 0.262576 0.125)
(0.0214792 0.237652 0.125)
(0.00698036 0.175506 0.125)
(0.0211064 0.188588 0.125)
(0.0212717 0.213158 0.125)
(0.00824053 0.125471 0.125)
(0.0222013 0.163983 0.125)
(0.0234614 0.138949 0.125)
(0.00706803 0.0749864 0.125)
(0.0223766 0.0879443 0.125)
(0.0235491 0.113429 0.125)
(0.0202365 0.0644066 0.125)
(0.0192689 0.0413539 0.125)
(0.45 0.956699 0.125)
(0.4625 0.935048 0.125)
(0.5 0.956699 0.125)
(0.4875 0.935048 0.125)
(0.079122 0.479237 0.125)
(0.0457092 0.448981 0.125)
(0.0443221 0.505034 0.125)
(0.0693343 0.457217 0.125)
(0.0687697 0.499972 0.125)
(0.55 0.0432621 0.125)
(0.536621 0.0660589 0.125)
(0.510449 0.0676618 0.125)
(0.498536 0.0452433 0.125)
(0.954007 0.505142 0.125)
(0.933072 0.546727 0.125)
(0.955531 0.555622 0.125)
(0.933104 0.521676 0.125)
(0.0663632 0.663161 0.125)
(0.0441635 0.702462 0.125)
(0.0443144 0.650825 0.125)
(0.0653609 0.68871 0.125)
(0.65 0.956699 0.125)
(0.6625 0.935048 0.125)
(0.687499 0.935048 0.125)
(0.699999 0.956698 0.125)
(0.349077 0.0649218 0.125)
(0.299979 0.0672358 0.125)
(0.353353 0.0409343 0.125)
(0.324628 0.0751657 0.125)
(0.295833 0.0435094 0.125)
(0.957387 0.350289 0.125)
(0.952118 0.299542 0.125)
(0.93018 0.314123 0.125)
(0.934374 0.339006 0.125)
(0.35 0.956699 0.125)
(0.3375 0.935048 0.125)
(0.3125 0.935048 0.125)
(0.3 0.956699 0.125)
(0.0418043 0.350003 0.125)
(0.0440949 0.300572 0.125)
(0.0658265 0.313648 0.125)
(0.0635069 0.338079 0.125)
(0.961012 0.698112 0.125)
(0.94414 0.683753 0.125)
(0.965116 0.649484 0.125)
(0.947166 0.660105 0.125)
(0.700148 0.0668708 0.125)
(0.647377 0.0417871 0.125)
(0.704159 0.0429611 0.125)
(0.677504 0.0738543 0.125)
(0.654224 0.0635627 0.125)
(0.849873 0.956772 0.125)
(0.837404 0.935103 0.125)
(0.799996 0.9567 0.125)
(0.812473 0.935062 0.125)
(0.0615891 0.849011 0.125)
(0.0724781 0.82607 0.125)
(0.0616584 0.802864 0.125)
(0.0382317 0.853252 0.125)
(0.0384056 0.797946 0.125)
(0.0437146 0.154542 0.125)
(0.0417176 0.201832 0.125)
(0.0613102 0.192512 0.125)
(0.0622124 0.169826 0.125)
(0.850853 0.0427259 0.125)
(0.840452 0.0634438 0.125)
(0.802433 0.0422098 0.125)
(0.817106 0.0628311 0.125)
(0.187511 0.935054 0.125)
(0.150148 0.956784 0.125)
(0.16259 0.9351 0.125)
(0.2 0.956698 0.125)
(0.936353 0.853167 0.125)
(0.9557 0.801012 0.125)
(0.932687 0.81027 0.125)
(0.960046 0.855538 0.125)
(0.924255 0.83356 0.125)
(0.938545 0.151183 0.125)
(0.928359 0.174211 0.125)
(0.939331 0.198119 0.125)
(0.961561 0.146686 0.125)
(0.962144 0.203346 0.125)
(0.200006 0.0669447 0.125)
(0.150344 0.0646463 0.125)
(0.204167 0.0429265 0.125)
(0.175129 0.0751826 0.125)
(0.146159 0.0403339 0.125)
(0.395799 0.0681533 0.125)
(0.447688 0.046149 0.125)
(0.438128 0.0686266 0.125)
(0.393267 0.043574 0.125)
(0.415684 0.0777619 0.125)
(0.932888 0.409012 0.125)
(0.954099 0.448743 0.125)
(0.955078 0.398479 0.125)
(0.933227 0.433863 0.125)
(0.0382381 0.552167 0.125)
(0.040779 0.600236 0.125)
(0.0584092 0.587416 0.125)
(0.0562948 0.563988 0.125)
(0.55 0.956699 0.125)
(0.5625 0.935048 0.125)
(0.6 0.956699 0.125)
(0.5875 0.935048 0.125)
(0.899185 0.957169 0.125)
(0.912333 0.936384 0.125)
(0.936173 0.938294 0.125)
(0.946145 0.960164 0.125)
(0.0735412 0.916834 0.125)
(0.0621071 0.895378 0.125)
(0.0633236 0.939489 0.125)
(0.0385154 0.893226 0.125)
(0.0400514 0.946091 0.125)
(0.0438616 0.0997971 0.125)
(0.0599789 0.0617384 0.125)
(0.0621146 0.0849322 0.125)
(0.0395859 0.0530656 0.125)
(0.899302 0.0428981 0.125)
(0.912406 0.063658 0.125)
(0.936185 0.0617128 0.125)
(0.946146 0.0398364 0.125)
(0.4375 0.935048 0.125)
(0.4125 0.935048 0.125)
(0.4 0.956699 0.125)
(0.425 0.913397 0.125)
(0.4375 0.891747 0.125)
(0.4625 0.891747 0.125)
(0.475 0.913397 0.125)
(0.4125 0.891747 0.125)
(0.3875 0.935048 0.125)
(0.3875 0.891747 0.125)
(0.375 0.913397 0.125)
(0.45 0.870096 0.125)
(0.4375 0.848446 0.125)
(0.4125 0.848446 0.125)
(0.4 0.870096 0.125)
(0.4625 0.848446 0.125)
(0.4875 0.848446 0.125)
(0.4875 0.891747 0.125)
(0.5 0.870096 0.125)
(0.475 0.826795 0.125)
(0.4625 0.805144 0.125)
(0.425 0.826795 0.125)
(0.4375 0.805144 0.125)
(0.4875 0.805144 0.125)
(0.5125 0.805144 0.125)
(0.525 0.826795 0.125)
(0.5125 0.848446 0.125)
(0.5 0.783494 0.125)
(0.4875 0.761843 0.125)
(0.4625 0.761843 0.125)
(0.45 0.783494 0.125)
(0.5125 0.761843 0.125)
(0.5375 0.805144 0.125)
(0.55 0.783494 0.125)
(0.5375 0.761843 0.125)
(0.475 0.740192 0.125)
(0.4875 0.718542 0.125)
(0.5125 0.718542 0.125)
(0.525 0.740192 0.125)
(0.4625 0.718542 0.125)
(0.4375 0.718542 0.125)
(0.425 0.740192 0.125)
(0.4375 0.761843 0.125)
(0.5 0.696891 0.125)
(0.4875 0.67524 0.125)
(0.45 0.696891 0.125)
(0.4625 0.67524 0.125)
(0.5125 0.67524 0.125)
(0.5375 0.67524 0.125)
(0.55 0.696891 0.125)
(0.5375 0.718542 0.125)
(0.525 0.65359 0.125)
(0.5125 0.631939 0.125)
(0.4875 0.631939 0.125)
(0.475 0.65359 0.125)
(0.5375 0.631939 0.125)
(0.5625 0.67524 0.125)
(0.575 0.65359 0.125)
(0.5625 0.631939 0.125)
(0.5 0.610289 0.125)
(0.5125 0.588638 0.125)
(0.5375 0.588638 0.125)
(0.55 0.610289 0.125)
(0.4875 0.588638 0.125)
(0.4625 0.588638 0.125)
(0.4625 0.631939 0.125)
(0.45 0.610289 0.125)
(0.525 0.566987 0.125)
(0.5125 0.545337 0.125)
(0.4875 0.545337 0.125)
(0.475 0.566987 0.125)
(0.5375 0.545337 0.125)
(0.5625 0.588638 0.125)
(0.575 0.566987 0.125)
(0.5625 0.545337 0.125)
(0.5 0.523686 0.125)
(0.5125 0.502035 0.125)
(0.5375 0.502035 0.125)
(0.55 0.523686 0.125)
(0.4875 0.502035 0.125)
(0.4625 0.502035 0.125)
(0.45 0.523686 0.125)
(0.4625 0.545337 0.125)
(0.475 0.480385 0.125)
(0.525 0.480385 0.125)
(0.4875 0.458734 0.125)
(0.5125 0.458734 0.125)
(0.4625 0.458734 0.125)
(0.4375 0.458734 0.125)
(0.425 0.480385 0.125)
(0.4375 0.502035 0.125)
(0.5375 0.458734 0.125)
(0.5625 0.458734 0.125)
(0.5625 0.502035 0.125)
(0.575 0.480385 0.125)
(0.45 0.437083 0.125)
(0.4625 0.415433 0.125)
(0.4875 0.415433 0.125)
(0.5 0.437083 0.125)
(0.4125 0.458734 0.125)
(0.4 0.437083 0.125)
(0.4375 0.415433 0.125)
(0.4125 0.415433 0.125)
(0.3875 0.458734 0.125)
(0.375 0.480385 0.125)
(0.3875 0.502035 0.125)
(0.4125 0.502035 0.125)
(0.3625 0.458734 0.125)
(0.35 0.437083 0.125)
(0.3625 0.415433 0.125)
(0.3875 0.415433 0.125)
(0.475 0.393782 0.125)
(0.4625 0.372132 0.125)
(0.4375 0.372132 0.125)
(0.425 0.393782 0.125)
(0.3375 0.458734 0.125)
(0.325 0.480385 0.125)
(0.3375 0.502035 0.125)
(0.3625 0.502035 0.125)
(0.3125 0.458734 0.125)
(0.3 0.437083 0.125)
(0.3125 0.415433 0.125)
(0.3375 0.415433 0.125)
(0.287501 0.458735 0.125)
(0.3125 0.502035 0.125)
(0.287501 0.502036 0.125)
(0.275002 0.480386 0.125)
(0.2875 0.415433 0.125)
(0.262501 0.415433 0.125)
(0.250003 0.437085 0.125)
(0.262503 0.458736 0.125)
(0.275 0.393782 0.125)
(0.2875 0.372132 0.125)
(0.3125 0.372132 0.125)
(0.325 0.393782 0.125)
(0.3 0.523686 0.125)
(0.3125 0.545337 0.125)
(0.3375 0.545337 0.125)
(0.35 0.523686 0.125)
(0.2875 0.545337 0.125)
(0.2625 0.545337 0.125)
(0.250001 0.523687 0.125)
(0.262502 0.502037 0.125)
(0.275 0.566987 0.125)
(0.2875 0.588638 0.125)
(0.325 0.566987 0.125)
(0.3125 0.588638 0.125)
(0.2625 0.588638 0.125)
(0.237506 0.588635 0.125)
(0.237506 0.545333 0.125)
(0.225011 0.566981 0.125)
(0.25 0.610289 0.125)
(0.2625 0.631939 0.125)
(0.3 0.610289 0.125)
(0.2875 0.631939 0.125)
(0.2625 0.372132 0.125)
(0.2375 0.372132 0.125)
(0.225001 0.393783 0.125)
(0.237502 0.415434 0.125)
(0.25 0.350481 0.125)
(0.2625 0.32883 0.125)
(0.2875 0.32883 0.125)
(0.3 0.350481 0.125)
(0.5875 0.67524 0.125)
(0.6 0.696891 0.125)
(0.5875 0.718542 0.125)
(0.5625 0.718542 0.125)
(0.6125 0.67524 0.125)
(0.625 0.65359 0.125)
(0.6125 0.631939 0.125)
(0.5875 0.631939 0.125)
(0.6375 0.67524 0.125)
(0.65 0.696891 0.125)
(0.6375 0.718542 0.125)
(0.6125 0.718542 0.125)
(0.6625 0.67524 0.125)
(0.675 0.65359 0.125)
(0.6375 0.631939 0.125)
(0.6625 0.631939 0.125)
(0.6875 0.67524 0.125)
(0.7 0.696891 0.125)
(0.6625 0.718542 0.125)
(0.6875 0.718542 0.125)
(0.7125 0.67524 0.125)
(0.725 0.65359 0.125)
(0.7125 0.631939 0.125)
(0.6875 0.631939 0.125)
(0.7375 0.67524 0.125)
(0.75 0.696891 0.125)
(0.7375 0.718542 0.125)
(0.7125 0.718542 0.125)
(0.7375 0.631939 0.125)
(0.7625 0.67524 0.125)
(0.7625 0.631939 0.125)
(0.775 0.65359 0.125)
(0.75 0.610289 0.125)
(0.7375 0.588638 0.125)
(0.7125 0.588638 0.125)
(0.7 0.610289 0.125)
(0.4875 0.372132 0.125)
(0.5125 0.372132 0.125)
(0.525 0.393782 0.125)
(0.5125 0.415433 0.125)
(0.5 0.350481 0.125)
(0.4875 0.32883 0.125)
(0.45 0.350481 0.125)
(0.4625 0.32883 0.125)
(0.5125 0.32883 0.125)
(0.5375 0.32883 0.125)
(0.5375 0.372132 0.125)
(0.55 0.350481 0.125)
(0.525 0.30718 0.125)
(0.5125 0.285529 0.125)
(0.4875 0.285529 0.125)
(0.475 0.30718 0.125)
(0.5375 0.285529 0.125)
(0.5625 0.285529 0.125)
(0.575 0.30718 0.125)
(0.5625 0.32883 0.125)
(0.5 0.263878 0.125)
(0.55 0.263924 0.125)
(0.5125 0.242274 0.125)
(0.5375 0.242319 0.125)
(0.4875 0.242228 0.125)
(0.4625 0.242228 0.125)
(0.45 0.263878 0.125)
(0.4625 0.285529 0.125)
(0.5875 0.285529 0.125)
(0.6 0.263918 0.125)
(0.5875 0.242352 0.125)
(0.5625 0.242358 0.125)
(0.6125 0.285529 0.125)
(0.625 0.30718 0.125)
(0.6125 0.32883 0.125)
(0.5875 0.32883 0.125)
(0.6375 0.285529 0.125)
(0.649999 0.263887 0.125)
(0.612499 0.242314 0.125)
(0.637499 0.242283 0.125)
(0.6625 0.285529 0.125)
(0.675 0.30718 0.125)
(0.6375 0.32883 0.125)
(0.6625 0.32883 0.125)
(0.6875 0.285529 0.125)
(0.699998 0.263881 0.125)
(0.687496 0.24224 0.125)
(0.662497 0.242246 0.125)
(0.7125 0.285529 0.125)
(0.725 0.30718 0.125)
(0.7125 0.32883 0.125)
(0.6875 0.32883 0.125)
(0.7375 0.285529 0.125)
(0.75 0.263878 0.125)
(0.737498 0.24223 0.125)
(0.712496 0.242232 0.125)
(0.7375 0.32883 0.125)
(0.762471 0.285546 0.125)
(0.762471 0.328847 0.125)
(0.774941 0.307214 0.125)
(0.75 0.350481 0.125)
(0.7375 0.372132 0.125)
(0.7125 0.372132 0.125)
(0.7 0.350481 0.125)
(0.3875 0.805144 0.125)
(0.4125 0.805144 0.125)
(0.375 0.826795 0.125)
(0.3875 0.848445 0.125)
(0.6625 0.761843 0.125)
(0.6375 0.761843 0.125)
(0.675 0.740192 0.125)
(0.625 0.740192 0.125)
(0.7625 0.718542 0.125)
(0.7875 0.718542 0.125)
(0.7875 0.67524 0.125)
(0.8 0.696891 0.125)
(0.775 0.740192 0.125)
(0.762499 0.761843 0.125)
(0.724999 0.740192 0.125)
(0.737499 0.761842 0.125)
(0.762182 0.242411 0.125)
(0.786687 0.242697 0.125)
(0.799299 0.264283 0.125)
(0.787264 0.285665 0.125)
(0.774311 0.220975 0.125)
(0.762067 0.199176 0.125)
(0.737428 0.198969 0.125)
(0.724988 0.220587 0.125)
(0.574779 0.222049 0.125)
(0.62418 0.219408 0.125)
(0.610641 0.197787 0.125)
(0.586239 0.200391 0.125)
(0.7625 0.588638 0.125)
(0.7875 0.588638 0.125)
(0.8 0.610289 0.125)
(0.7875 0.631939 0.125)
(0.775 0.566987 0.125)
(0.725 0.566987 0.125)
(0.7375 0.545337 0.125)
(0.7625 0.545337 0.125)
(0.7625 0.372132 0.125)
(0.7875 0.372132 0.125)
(0.799971 0.350498 0.125)
(0.787441 0.328864 0.125)
(0.2375 0.631939 0.125)
(0.2125 0.631939 0.125)
(0.200006 0.610285 0.125)
(0.212511 0.588631 0.125)
(0.225 0.65359 0.125)
(0.2375 0.67524 0.125)
(0.2625 0.67524 0.125)
(0.275 0.65359 0.125)
(0.212612 0.501996 0.125)
(0.237508 0.50204 0.125)
(0.212611 0.545283 0.125)
(0.200211 0.523592 0.125)
(0.23752 0.328842 0.125)
(0.2125 0.372132 0.125)
(0.20002 0.350492 0.125)
(0.21254 0.328853 0.125)
(0.275 0.30718 0.125)
(0.2625 0.285529 0.125)
(0.23752 0.285541 0.125)
(0.22504 0.307203 0.125)
(0.2875 0.285529 0.125)
(0.3125 0.32883 0.125)
(0.325 0.30718 0.125)
(0.3125 0.285529 0.125)
(0.25 0.263878 0.125)
(0.2625 0.242228 0.125)
(0.2875 0.242228 0.125)
(0.3 0.263878 0.125)
(0.2375 0.242228 0.125)
(0.21262 0.242297 0.125)
(0.20026 0.264029 0.125)
(0.21266 0.285621 0.125)
(0.275 0.220578 0.125)
(0.225 0.220577 0.125)
(0.2375 0.198928 0.125)
(0.2625 0.198929 0.125)
(0.287489 0.198945 0.125)
(0.312498 0.242229 0.125)
(0.324985 0.220595 0.125)
(0.312476 0.198961 0.125)
(0.474672 0.220766 0.125)
(0.486844 0.199305 0.125)
(0.512172 0.199161 0.125)
(0.525 0.220669 0.125)
(0.787393 0.761781 0.125)
(0.812286 0.76172 0.125)
(0.824893 0.740131 0.125)
(0.8125 0.718542 0.125)
(0.799769 0.78336 0.125)
(0.787355 0.80506 0.125)
(0.762476 0.80513 0.125)
(0.749996 0.783491 0.125)
(0.1875 0.372132 0.125)
(0.175 0.393782 0.125)
(0.187501 0.415433 0.125)
(0.212502 0.415434 0.125)
(0.4125 0.718542 0.125)
(0.4 0.696891 0.125)
(0.4125 0.67524 0.125)
(0.4375 0.67524 0.125)
(0.725 0.393782 0.125)
(0.775 0.393782 0.125)
(0.7625 0.415433 0.125)
(0.7375 0.415433 0.125)
(0.6875 0.372132 0.125)
(0.675 0.393782 0.125)
(0.7125 0.415433 0.125)
(0.6875 0.415433 0.125)
(0.2125 0.198927 0.125)
(0.188176 0.242656 0.125)
(0.187936 0.199217 0.125)
(0.175991 0.221227 0.125)
(0.787041 0.199985 0.125)
(0.809444 0.24426 0.125)
(0.810311 0.202046 0.125)
(0.820338 0.224599 0.125)
(0.8125 0.588638 0.125)
(0.825 0.566987 0.125)
(0.8125 0.545337 0.125)
(0.7875 0.545337 0.125)
(0.212525 0.675204 0.125)
(0.187526 0.631924 0.125)
(0.175078 0.653523 0.125)
(0.187576 0.675152 0.125)
(0.25 0.696891 0.125)
(0.2375 0.718542 0.125)
(0.212525 0.718505 0.125)
(0.20005 0.696818 0.125)
(0.8125 0.372132 0.125)
(0.824992 0.393778 0.125)
(0.787492 0.415428 0.125)
(0.812484 0.415423 0.125)
(0.2625 0.718542 0.125)
(0.2875 0.718542 0.125)
(0.3 0.696891 0.125)
(0.2875 0.67524 0.125)
(0.225 0.740192 0.125)
(0.2375 0.761843 0.125)
(0.275 0.740192 0.125)
(0.262499 0.761843 0.125)
(0.212446 0.761812 0.125)
(0.187358 0.761668 0.125)
(0.174901 0.7399 0.125)
(0.187515 0.718356 0.125)
(0.199884 0.783427 0.125)
(0.212427 0.805102 0.125)
(0.237488 0.805137 0.125)
(0.249998 0.783492 0.125)
(0.7125 0.545337 0.125)
(0.6875 0.545337 0.125)
(0.675 0.566987 0.125)
(0.6875 0.588638 0.125)
(0.46179 0.199337 0.125)
(0.437054 0.199184 0.125)
(0.437491 0.242233 0.125)
(0.424927 0.220619 0.125)
(0.5625 0.805144 0.125)
(0.575 0.826795 0.125)
(0.5375 0.848446 0.125)
(0.5625 0.848446 0.125)
(0.2 0.177315 0.125)
(0.2125 0.15571 0.125)
(0.2375 0.155679 0.125)
(0.25 0.177285 0.125)
(0.749866 0.177353 0.125)
(0.799431 0.178335 0.125)
(0.761653 0.155257 0.125)
(0.786244 0.155431 0.125)
(0.737406 0.155719 0.125)
(0.712464 0.155731 0.125)
(0.699973 0.177345 0.125)
(0.712477 0.198949 0.125)
(0.449214 0.176815 0.125)
(0.497619 0.178799 0.125)
(0.460022 0.155375 0.125)
(0.483373 0.15739 0.125)
(0.43668 0.154117 0.125)
(0.411688 0.154874 0.125)
(0.399541 0.177388 0.125)
(0.412373 0.199 0.125)
(0.8375 0.588638 0.125)
(0.85 0.610289 0.125)
(0.8375 0.631939 0.125)
(0.8125 0.631939 0.125)
(0.18778 0.285691 0.125)
(0.164225 0.242848 0.125)
(0.163374 0.28558 0.125)
(0.151904 0.26411 0.125)
(0.811646 0.286005 0.125)
(0.834478 0.286462 0.125)
(0.843626 0.266254 0.125)
(0.830939 0.245774 0.125)
(0.1875 0.155749 0.125)
(0.161986 0.156203 0.125)
(0.149408 0.178506 0.125)
(0.162857 0.199954 0.125)
(0.850678 0.197334 0.125)
(0.809478 0.15514 0.125)
(0.833587 0.209446 0.125)
(0.84873 0.172214 0.125)
(0.831199 0.152484 0.125)
(0.187311 0.805035 0.125)
(0.162242 0.761384 0.125)
(0.162175 0.804832 0.125)
(0.149632 0.782939 0.125)
(0.812123 0.805244 0.125)
(0.836986 0.761966 0.125)
(0.836713 0.805745 0.125)
(0.849057 0.784107 0.125)
(0.162754 0.631792 0.125)
(0.150463 0.610021 0.125)
(0.162774 0.58848 0.125)
(0.187545 0.588612 0.125)
(0.224977 0.826782 0.125)
(0.174787 0.826679 0.125)
(0.212464 0.848432 0.125)
(0.187389 0.848397 0.125)
(0.237484 0.848436 0.125)
(0.262494 0.848442 0.125)
(0.274995 0.826792 0.125)
(0.262496 0.805142 0.125)
(0.3625 0.588638 0.125)
(0.3625 0.545337 0.125)
(0.3375 0.588638 0.125)
(0.375 0.566987 0.125)
(0.3125 0.718542 0.125)
(0.325 0.740192 0.125)
(0.3125 0.761843 0.125)
(0.287499 0.761843 0.125)
(0.4375 0.32883 0.125)
(0.4125 0.372132 0.125)
(0.4 0.350481 0.125)
(0.4125 0.32883 0.125)
(0.7 0.523686 0.125)
(0.7125 0.502035 0.125)
(0.75 0.523686 0.125)
(0.7375 0.502035 0.125)
(0.6875 0.502035 0.125)
(0.6625 0.502035 0.125)
(0.65 0.523686 0.125)
(0.6625 0.545337 0.125)
(0.774955 0.826769 0.125)
(0.824574 0.827241 0.125)
(0.787426 0.84846 0.125)
(0.812276 0.848748 0.125)
(0.762468 0.848427 0.125)
(0.737488 0.848439 0.125)
(0.724991 0.82679 0.125)
(0.737492 0.80514 0.125)
(0.724964 0.134074 0.125)
(0.737318 0.112703 0.125)
(0.761451 0.112542 0.125)
(0.773345 0.133451 0.125)
(0.13738 0.761065 0.125)
(0.125339 0.739346 0.125)
(0.162639 0.718152 0.125)
(0.137938 0.717918 0.125)
(0.877653 0.742718 0.125)
(0.837504 0.718776 0.125)
(0.863982 0.720033 0.125)
(0.863266 0.763297 0.125)
(0.837248 0.545191 0.125)
(0.863654 0.587842 0.125)
(0.86315 0.54425 0.125)
(0.877056 0.565249 0.125)
(0.849455 0.523371 0.125)
(0.837158 0.501838 0.125)
(0.799993 0.523682 0.125)
(0.812444 0.502003 0.125)
(0.13704 0.84839 0.125)
(0.124206 0.826482 0.125)
(0.136872 0.804645 0.125)
(0.162319 0.848401 0.125)
(0.837115 0.849492 0.125)
(0.862046 0.851534 0.125)
(0.861476 0.807649 0.125)
(0.874269 0.831188 0.125)
(0.249994 0.870092 0.125)
(0.237495 0.891744 0.125)
(0.212482 0.891744 0.125)
(0.19996 0.870088 0.125)
(0.35 0.696891 0.125)
(0.3375 0.67524 0.125)
(0.3375 0.718542 0.125)
(0.3125 0.67524 0.125)
(0.65 0.350481 0.125)
(0.6375 0.372132 0.125)
(0.6125 0.372132 0.125)
(0.6 0.350481 0.125)
(0.4375 0.285529 0.125)
(0.41248 0.242239 0.125)
(0.412498 0.28553 0.125)
(0.399988 0.263885 0.125)
(0.3875 0.718542 0.125)
(0.375 0.740192 0.125)
(0.3875 0.761843 0.125)
(0.4125 0.761843 0.125)
(0.837289 0.372154 0.125)
(0.849138 0.350765 0.125)
(0.812 0.329102 0.125)
(0.836378 0.329346 0.125)
(0.863213 0.372511 0.125)
(0.877058 0.394473 0.125)
(0.837484 0.415423 0.125)
(0.863626 0.415762 0.125)
(0.6375 0.588638 0.125)
(0.6 0.610289 0.125)
(0.65 0.610289 0.125)
(0.6125 0.588638 0.125)
(0.575 0.393782 0.125)
(0.5375 0.415433 0.125)
(0.5625 0.372132 0.125)
(0.5625 0.415433 0.125)
(0.136826 0.631393 0.125)
(0.123154 0.652784 0.125)
(0.162762 0.675045 0.125)
(0.136766 0.674707 0.125)
(0.549414 0.156708 0.125)
(0.537279 0.20032 0.125)
(0.527569 0.147698 0.125)
(0.553439 0.180398 0.125)
(0.504762 0.156939 0.125)
(0.1625 0.372132 0.125)
(0.15 0.350481 0.125)
(0.18754 0.328853 0.125)
(0.16252 0.328842 0.125)
(0.162711 0.415555 0.125)
(0.136751 0.416083 0.125)
(0.122869 0.394717 0.125)
(0.136329 0.372538 0.125)
(0.150458 0.437348 0.125)
(0.162788 0.4589 0.125)
(0.187548 0.458762 0.125)
(0.200008 0.437088 0.125)
(0.75 0.437083 0.125)
(0.762493 0.45873 0.125)
(0.787478 0.458721 0.125)
(0.799977 0.43707 0.125)
(0.287497 0.848444 0.125)
(0.262496 0.891745 0.125)
(0.299998 0.870095 0.125)
(0.287498 0.891746 0.125)
(0.312498 0.848445 0.125)
(0.312499 0.805144 0.125)
(0.287497 0.805143 0.125)
(0.324999 0.826794 0.125)
(0.749987 0.870089 0.125)
(0.762487 0.891743 0.125)
(0.787456 0.891786 0.125)
(0.799914 0.870165 0.125)
(0.712493 0.848442 0.125)
(0.699996 0.870094 0.125)
(0.737493 0.891743 0.125)
(0.712496 0.891745 0.125)
(0.687497 0.848444 0.125)
(0.674998 0.826794 0.125)
(0.687498 0.805143 0.125)
(0.712494 0.805141 0.125)
(0.662498 0.848445 0.125)
(0.649999 0.870096 0.125)
(0.662499 0.891746 0.125)
(0.687498 0.891745 0.125)
(0.637499 0.848445 0.125)
(0.662499 0.805144 0.125)
(0.625 0.826795 0.125)
(0.637499 0.805144 0.125)
(0.6125 0.848445 0.125)
(0.6125 0.891747 0.125)
(0.6 0.870096 0.125)
(0.637499 0.891746 0.125)
(0.688207 0.155167 0.125)
(0.676597 0.133336 0.125)
(0.712635 0.112805 0.125)
(0.688524 0.112631 0.125)
(0.861945 0.631805 0.125)
(0.885825 0.632025 0.125)
(0.899469 0.610067 0.125)
(0.889243 0.5874 0.125)
(0.422676 0.133365 0.125)
(0.4715 0.11145 0.125)
(0.451751 0.10243 0.125)
(0.474467 0.135155 0.125)
(0.429884 0.111487 0.125)
(0.386708 0.155792 0.125)
(0.373875 0.133472 0.125)
(0.384555 0.112166 0.125)
(0.408375 0.112976 0.125)
(0.175006 0.134628 0.125)
(0.225 0.134066 0.125)
(0.212506 0.112893 0.125)
(0.187512 0.113416 0.125)
(0.13652 0.156228 0.125)
(0.124699 0.133079 0.125)
(0.137788 0.11118 0.125)
(0.162629 0.112755 0.125)
(0.2375 0.112376 0.125)
(0.262491 0.112385 0.125)
(0.262491 0.155689 0.125)
(0.274981 0.134085 0.125)
(0.13851 0.458931 0.125)
(0.112003 0.417456 0.125)
(0.115415 0.459788 0.125)
(0.102615 0.439578 0.125)
(0.126833 0.480087 0.125)
(0.175182 0.480385 0.125)
(0.139221 0.501373 0.125)
(0.163293 0.501702 0.125)
(0.0670946 0.409492 0.125)
(0.0661918 0.385963 0.125)
(0.110943 0.372868 0.125)
(0.0856117 0.369661 0.125)
(0.0873639 0.423222 0.125)
(0.138978 0.587624 0.125)
(0.111415 0.628771 0.125)
(0.115697 0.584547 0.125)
(0.101771 0.604323 0.125)
(0.127802 0.565063 0.125)
(0.175178 0.566895 0.125)
(0.139709 0.543941 0.125)
(0.163289 0.544917 0.125)
(0.5875 0.805144 0.125)
(0.6 0.783494 0.125)
(0.5875 0.761843 0.125)
(0.5625 0.761843 0.125)
(0.873893 0.653555 0.125)
(0.825 0.65359 0.125)
(0.837504 0.675475 0.125)
(0.861952 0.675575 0.125)
(0.663127 0.153296 0.125)
(0.687483 0.198959 0.125)
(0.661674 0.197696 0.125)
(0.649084 0.17421 0.125)
(0.639478 0.150149 0.125)
(0.666454 0.110215 0.125)
(0.645669 0.106133 0.125)
(0.632163 0.126106 0.125)
(0.362035 0.155779 0.125)
(0.387425 0.19897 0.125)
(0.362476 0.19895 0.125)
(0.349919 0.177356 0.125)
(0.361364 0.111576 0.125)
(0.324836 0.134664 0.125)
(0.337354 0.155799 0.125)
(0.337005 0.112748 0.125)
(0.675 0.480385 0.125)
(0.7125 0.458734 0.125)
(0.725 0.480385 0.125)
(0.6875 0.458734 0.125)
(0.6375 0.502035 0.125)
(0.625 0.480385 0.125)
(0.6375 0.458734 0.125)
(0.6625 0.458734 0.125)
(0.6375 0.545337 0.125)
(0.6125 0.545337 0.125)
(0.6 0.523686 0.125)
(0.6125 0.502035 0.125)
(0.224997 0.913396 0.125)
(0.274998 0.913396 0.125)
(0.262499 0.935047 0.125)
(0.237499 0.935047 0.125)
(0.337499 0.848445 0.125)
(0.35 0.870096 0.125)
(0.337499 0.891746 0.125)
(0.312499 0.891746 0.125)
(0.724997 0.913395 0.125)
(0.737498 0.935047 0.125)
(0.762494 0.935048 0.125)
(0.774987 0.913397 0.125)
(0.888291 0.372882 0.125)
(0.86119 0.329255 0.125)
(0.885567 0.328957 0.125)
(0.898594 0.350838 0.125)
(0.112342 0.153841 0.125)
(0.139634 0.200946 0.125)
(0.0998003 0.192884 0.125)
(0.097365 0.171109 0.125)
(0.117455 0.205656 0.125)
(0.861587 0.501495 0.125)
(0.884879 0.499784 0.125)
(0.887879 0.541919 0.125)
(0.897475 0.519329 0.125)
(0.874013 0.479789 0.125)
(0.824894 0.480324 0.125)
(0.837393 0.458672 0.125)
(0.862082 0.45848 0.125)
(0.113575 0.110703 0.125)
(0.0764284 0.129637 0.125)
(0.0891096 0.110737 0.125)
(0.0885356 0.150365 0.125)
(0.921146 0.478368 0.125)
(0.885432 0.459196 0.125)
(0.908898 0.459625 0.125)
(0.908545 0.497935 0.125)
(0.254167 0.0897662 0.125)
(0.25 0.0659903 0.125)
(0.225 0.0578036 0.125)
(0.195845 0.0910021 0.125)
(0.753765 0.0907498 0.125)
(0.74969 0.0669974 0.125)
(0.724918 0.05817 0.125)
(0.696134 0.0908216 0.125)
(0.37298 0.0566821 0.125)
(0.345074 0.0896401 0.125)
(0.399197 0.0921412 0.125)
(0.154412 0.0896725 0.125)
(0.126191 0.0551198 0.125)
(0.10258 0.0652815 0.125)
(0.0983531 0.0894889 0.125)
(0.783497 0.110591 0.125)
(0.772282 0.0742288 0.125)
(0.790224 0.0872988 0.125)
(0.28746 0.112911 0.125)
(0.304116 0.0910104 0.125)
(0.275 0.0665169 0.125)
(0.933467 0.385803 0.125)
(0.888394 0.416989 0.125)
(0.913562 0.369766 0.125)
(0.912875 0.422671 0.125)
(0.0658796 0.638001 0.125)
(0.111768 0.674769 0.125)
(0.08665 0.678739 0.125)
(0.0857705 0.622039 0.125)
(0.907695 0.631507 0.125)
(0.88605 0.674353 0.125)
(0.908133 0.672159 0.125)
(0.917847 0.650844 0.125)
(0.915033 0.589932 0.125)
(0.938605 0.595358 0.125)
(0.944401 0.617207 0.125)
(0.929055 0.633222 0.125)
(0.117093 0.542393 0.125)
(0.0944311 0.580071 0.125)
(0.0962757 0.539567 0.125)
(0.0857178 0.557761 0.125)
(0.116113 0.50044 0.125)
(0.0916695 0.460079 0.125)
(0.0921474 0.4993 0.125)
(0.175008 0.91341 0.125)
(0.187482 0.891751 0.125)
(0.212499 0.935047 0.125)
(0.3625 0.935048 0.125)
(0.0448929 0.398808 0.125)
(0.0667168 0.4343 0.125)
(0.0635425 0.361877 0.125)
(0.65 0.783493 0.125)