/*--------------------------------*- C++ -*----------------------------------*\
| =========                 |                                                 |
| \\      /  F ield         | OpenFOAM: The Open Source CFD Toolbox           |
|  \\    /   O peration     | Version:  2.4.0                                 |
|   \\  /    A nd           | Web:      www.OpenFOAM.org                      |
|    \\/     M anipulation  |                                                 |
\*---------------------------------------------------------------------------*/
FoamFile
{
    version     2.0;
    format      ascii;
    class       surfaceVectorField;
    location    "0";
    object      faceUnitNormalVector;
}
// * * * * * * * * * * * * * * * * * * * * * * * * * * * * * * * * * * * * * //

dimensions      [0 0 0 0 0 0 0];

internalField   nonuniform List<vector> 
1456
(
(0.953254 -0.302169 0)
(-0.302169 0.953254 0)
(0.707107 0.707107 0)
(-0.953254 -0.302169 5.29431e-19)
(0.302169 0.953254 0)
(-0.707107 0.707107 0)
(0.302169 -0.953254 0)
(-0.953254 0.302169 0)
(-0.707107 -0.707107 0)
(0.953254 0.302169 0)
(-0.302169 -0.953254 -5.29431e-19)
(0.707107 -0.707107 0)
(0.995127 -0.0986037 0)
(0.5 0.866025 2.22157e-18)
(-0.495533 0.868589 0)
(0.999834 -0.0182384 0)
(0.540977 0.841037 -1.93994e-18)
(-0.413722 0.910403 0)
(1 0 0)
(0.419478 0.907766 0)
(-0.5 0.866025 0)
(1 0 0)
(-0.471884 0.88166 0)
(0.5 0.866025 0)
(1 0 0)
(0.471884 0.88166 0)
(-0.48763 0.87305 0)
(1 0 0)
(0.48763 0.87305 1.89313e-18)
(-0.5 0.866025 -1.87789e-18)
(0.999201 0.0399555 -7.01055e-20)
(-0.44176 0.897133 0)
(0.5 0.866025 1.87789e-18)
(0.994774 0.102106 0)
(0.42814 0.903713 0)
(-0.591934 0.805987 -1.87945e-18)
(0.999259 0.0384938 -1.11439e-19)
(-0.528277 0.849072 -1.88526e-18)
(0.537978 0.842959 3.41627e-18)
(1 0 0)
(0.51052 0.859866 1.82189e-18)
(-0.5 0.866025 0)
(1 0 0)
(-0.5 0.866025 0)
(0.5 0.866025 0)
(0.998914 0.0465973 0)
(-0.5 0.866025 0)
(0.5 0.866025 0)
(1 0 0)
(0.480464 0.877014 0)
(-0.5 0.866025 0)
(1 0.000574174 0)
(-0.472944 0.881093 0)
(0.5 0.866025 -1.87789e-18)
(0.999949 0.0101144 0)
(0.472718 0.881214 1.91024e-18)
(-0.507232 0.86181 0)
(0.998861 -0.0477187 0)
(0.502779 0.864415 0)
(-0.478051 0.878332 0)
(1 0 0)
(-0.5 0.866025 0)
(0.497903 0.867233 0)
(0.998951 0.045792 1.20348e-19)
(0.5 0.866025 0)
(-0.5 0.866025 1.92759e-18)
(-0.5 0.866025 0)
(0.480792 0.876835 -1.85354e-18)
(0.138583 0.990351 0)
(-0.866025 0.5 0)
(-0.870486 -0.492193 0)
(0.0169736 0.999856 0)
(-0.914687 -0.404164 1.96853e-18)
(-0.83011 0.5576 1.96921e-18)
(-0.0103557 0.999946 0)
(-0.912402 0.409295 0)
(-0.858998 -0.511979 1.87415e-18)
(0 1 0)
(-0.916983 -0.398926 1.98839e-18)
(-0.86174 0.50735 0)
(-0.10373 0.994605 0)
(-0.916983 0.398926 -1.98839e-18)
(-0.814346 -0.58038 0)
(0.0117406 0.999931 0)
(-0.849728 0.527222 0)
(-0.864673 -0.502334 0)
(0 1 0)
(-0.866025 -0.5 -1.87789e-18)
(-0.861651 0.507502 0)
(-0.0546788 0.998504 -1.131e-19)
(-0.866025 0.5 -1.87789e-18)
(-0.850471 -0.526022 0)
(0.048373 0.998829 9.91234e-20)
(-0.834241 -0.551401 1.75107e-18)
(-0.865306 0.501244 1.81681e-18)
(0.12582 0.992053 2.24112e-19)
(-0.816857 0.57684 -1.83185e-18)
(-0.873436 -0.486939 0)
(0.119858 0.992791 0)
(-0.88611 -0.463476 0)
(-0.838704 0.544587 0)
(0 1 0)
(-0.907218 -0.420661 1.96722e-18)
(-0.858003 0.513644 1.99496e-18)
(-0.019539 0.999809 -3.41681e-20)
(-0.907218 0.420661 0)
(-0.894228 -0.447612 -1.95802e-18)
(-0.00293598 0.999996 0)
(-0.875914 -0.482467 0)
(-0.897652 0.440704 1.9278e-18)
(0.0176508 0.999844 0)
(-0.865773 -0.500437 0)
(-0.876571 0.481272 -1.8977e-18)
(0.0979964 0.995187 0)
(-0.861245 0.508191 0)
(-0.855184 -0.518325 -1.74371e-18)
(-0.00746736 0.999972 9.41221e-21)
(-0.91142 -0.411478 0)
(-0.823753 0.566948 0)
(-0.138466 0.990367 0)
(-0.912451 0.409185 1.97194e-18)
(-0.830084 -0.557639 0)
(-0.866025 -0.5 -2.22157e-18)
(-0.870439 0.492276 -1.73822e-18)
(-0.998951 0.045792 -1.20348e-19)
(-0.5 -0.866025 0)
(0.480792 -0.876835 0)
(-0.999972 0.00747494 0)
(0.496781 -0.867876 -1.87385e-18)
(-0.5 -0.866025 0)
(-1 0 0)
(-0.5 -0.866025 1.886e-18)
(0.5 -0.866025 -1.87789e-18)
(-1 2.17543e-05 0)
(0.5 -0.866025 -1.87787e-18)
(-0.5 -0.866025 1.87789e-18)
(-1 2.58418e-05 0)
(-0.500009 -0.86602 0)
(0.5 -0.866025 -1.87787e-18)
(-1 0 0)
(-0.500011 -0.866019 0)
(0.5 -0.866025 0)
(-1 0 0)
(0.5 -0.866025 0)
(-0.5 -0.866025 0)
(-1 0 0)
(-0.5 -0.866025 0)
(0.5 -0.866025 0)
(-1 0 0)
(0.5 -0.866025 0)
(-0.5 -0.866025 0)
(-1 0 0)
(-0.5 -0.866025 0)
(0.5 -0.866025 0)
(-1 0 0)
(0.5 -0.866025 0)
(-0.5 -0.866025 1.87789e-18)
(-1 0 0)
(0.5 -0.866025 0)
(-0.5 -0.866025 1.87789e-18)
(-1 0 0)
(-0.5 -0.866025 0)
(0.5 -0.866025 0)
(-1 1.29695e-05 2.86542e-23)
(0.5 -0.866025 0)
(-0.5 -0.866025 0)
(-1 4.96058e-06 1.43271e-23)
(0.5 -0.866025 0)
(-0.500006 -0.866022 0)
(-1 0 0)
(-0.500002 -0.866024 1.8779e-18)
(0.5 -0.866025 -1.87789e-18)
(-0.999955 -0.00948867 0)
(0.5 -0.866025 0)
(-0.5 -0.866025 0)
(-0.999303 -0.0373223 0)
(0.487905 -0.872897 1.93231e-18)
(-0.495919 -0.868369 1.87277e-18)
(0.5 -0.866025 0)
(-0.472792 -0.881174 0)
(-0.10087 -0.9949 0)
(0.866025 -0.5 0)
(0.869163 0.494526 0)
(-0.0458383 -0.998949 0)
(0.918701 0.394953 0)
(0.841058 -0.540944 0)
(0.0109818 -0.99994 0)
(0.912752 -0.408513 -2.01986e-18)
(0.85888 0.512177 1.8746e-18)
(0.0861484 -0.996282 0)
(0.907154 0.420798 2.04598e-18)
(0.861789 -0.507267 1.85663e-18)
(0.165088 -0.986279 0)
(0.918863 -0.394577 0)
(0.811876 0.58383 1.97238e-18)
(0 -1 0)
(0.865187 -0.501449 0)
(0.866025 0.5 0)
(0.0355314 -0.999369 0)
(0.862892 0.505388 -1.91006e-18)
(0.866025 -0.5 -1.87789e-18)
(0.0276619 -0.999617 -6.4191e-20)
(0.87166 -0.490111 0)
(0.881582 0.472031 0)
(0.0906981 -0.995878 0)
(0.869706 0.493571 0)
(0.887207 -0.461371 0)
(0.0433203 -0.999061 1.0061e-19)
(0.889266 -0.45739 0)
(0.821883 0.569656 0)
(-0.0375237 -0.999296 1.13132e-19)
(0.863004 0.505196 1.83021e-18)
(0.836983 -0.547229 0)
(0 -1 0)
(0.866025 0.5 0)
(0.852826 -0.522195 0)
(0 -1 0)
(0.866025 -0.5 1.87789e-18)
(0.871239 0.49086 1.8892e-18)
(0 -1 0)
(0.866897 0.498488 -1.87978e-18)
(0.871239 -0.49086 1.8892e-18)
(0.0106518 -0.999943 0)
(0.866847 0.498574 0)
(0.866897 -0.498488 0)
(0.0722689 -0.997385 -1.21028e-19)
(0.869452 -0.494018 1.87391e-18)
(0.864288 0.502996 0)
(0.0571216 -0.998367 0)
(0.824972 0.565174 -3.71798e-18)
(0.881114 -0.472904 0)
(-0.00192018 -0.999998 0)
(0.844075 -0.536225 0)
(0.870708 0.491801 0)
(0.866025 0.5 2.22157e-18)
(0.87025 -0.492611 0)
(-1 0 0)
(-0.5 -0.866025 0)
(1 0 0)
(0.5 -0.866025 0)
(0.999977 -0.00682858 0)
(-0.0849324 -0.996387 0)
(-0.214477 0.976729 0)
(0.696744 -0.717319 0)
(0.614873 0.788626 -2.04782e-18)
(1 0 0)
(0.531826 0.846853 0)
(-0.469332 0.883022 0)
(-0.998419 -0.0562064 -2.16579e-19)
(-0.170739 -0.985316 0)
(-0.843977 0.536379 0)
(0.130056 0.991507 -8.66198e-19)
(-0.896522 -0.443 0)
(0.879286 -0.476294 0)
(0.0163607 0.999866 -6.18938e-20)
(0.0202564 -0.999795 0)
(0.874204 0.485559 0)
(-1 4.37169e-06 0)
(-0.500022 -0.866013 0)
(0.5 -0.866025 0)
(1 -2.51837e-05 0)
(0.762452 0.647045 0)
(-0.719588 0.694401 0)
(0.966425 -0.256948 0)
(0.0418522 0.999124 2.07221e-19)
(-0.964029 -0.265797 0)
(0.00864684 0.999963 0)
(-0.0658061 -0.997832 -4.05512e-19)
(-0.931525 -0.363677 -1.87279e-18)
(-0.769647 0.63847 -1.82988e-18)
(1 -2.14081e-06 7.16359e-24)
(0.5 -0.866025 0)
(-0.499996 -0.866028 -1.87789e-18)
(-1 1.263e-05 -5.73083e-23)
(-0.000244309 1 0)
(0.0365764 -0.999331 2.16569e-19)
(0.898813 -0.438333 1.94848e-18)
(0.817045 0.576574 1.85668e-18)
(-0.124008 0.992281 -5.2339e-19)
(-0.953634 0.300969 0)
(0.0250923 -0.999685 0)
(-0.839516 -0.543335 2.08868e-18)
(0.732454 0.680817 0)
(-0.989237 -0.146319 0)
(0.964029 -0.265797 1.72907e-18)
(-0.12442 0.99223 4.64757e-19)
(-0.693241 0.720706 0)
(0.999999 -0.00134492 0)
(0.503032 -0.864268 1.88157e-18)
(-1 0.000274519 0)
(-0.499991 -0.866031 -1.8808e-18)
(0.583588 0.81205 0)
(1 -0.000777792 0)
(0.599676 -0.800243 0)
(-0.27713 0.960833 0)
(-0.247626 -0.968856 0)
(0.191345 -0.981523 -1.0022e-18)
(-0.0495652 0.998771 0)
(0.852407 0.522879 0)
(0.924758 -0.380555 1.97418e-18)
(0.999916 -0.0129771 0)
(0.517098 0.855926 -2.19142e-18)
(-0.990267 0.139182 0)
(-0.481423 0.876488 0)
(0.5 -0.866025 0)
(-1 -0.000782728 0)
(-0.504113 -0.863638 1.88303e-18)
(1 -2.44424e-05 1.14616e-22)
(-0.499777 0.866154 0)
(0.0611411 -0.998129 -2.48912e-19)
(-0.730698 -0.682701 0)
(0.305178 0.952295 -1.02503e-18)
(-0.997169 0.0751982 -2.5594e-19)
(-0.59802 -0.801481 0)
(-0.999764 0.0217022 0)
(-0.634045 0.773296 0)
(0.258819 -0.965926 0)
(0.276314 0.961068 0)
(0.73044 0.682977 0)
(-0.767786 0.640706 0)
(0.964029 -0.265797 0)
(-0.0403316 0.999186 0)
(-0.962868 -0.269974 -9.03428e-19)
(-0.82216 0.569256 2.19524e-18)
(0.999998 -0.00187602 -7.62535e-21)
(0.667436 0.744668 2.10544e-18)
(-0.954695 -0.297587 0)
(0.0421821 0.99911 -1.31648e-19)
(-0.860317 -0.509759 0)
(-0.0907491 0.995874 -4.86388e-19)
(0.0451708 -0.998979 2.17908e-19)
(-0.889421 0.457088 -1.77059e-18)
(0.0495802 -0.99877 -1.46403e-19)
(0.0481621 0.99884 0)
(0.940888 0.338718 0)
(0.86582 -0.500356 0)
(-1 0 0)
(-0.500001 -0.866025 1.87789e-18)
(1 -8.69489e-07 0)
(0.5 -0.866025 0)
(-0.999991 0.00435264 0)
(-0.435291 -0.90029 1.84717e-18)
(0.615336 -0.788265 0)
(0.998831 0.0483475 0)
(0.999789 -0.0205284 0)
(0.526338 -0.850276 2.06974e-18)
(0.609801 0.792554 0)
(-0.355678 -0.934609 1.01684e-18)
(-0.115972 0.993252 0)
(0.0841634 0.996452 2.54906e-19)
(0.797627 -0.603151 2.28839e-18)
(0.939578 0.342334 -1.85268e-18)
(-0.0583767 -0.998295 2.55292e-19)
(-0.999993 -0.0037295 1.47025e-20)
(-0.435018 0.900422 1.8548e-18)
(0.615896 0.787827 0)
(0.998826 -0.0484388 0)
(0.5 -0.866025 -1.87789e-18)
(-0.5 -0.866025 0)
(-1 0 0)
(-1 0 0)
(-0.5 -0.866025 1.87789e-18)
(0.5 -0.866025 0)
(1 0 0)
(0.5 -0.866025 0)
(-0.5 0.866025 1.87789e-18)
(-0.499998 -0.866026 1.87789e-18)
(-1 2.72278e-06 0)
(1 0 0)
(0.5 -0.866025 -1.87789e-18)
(-0.499998 -0.866027 0)
(-1 0 0)
(-0.5 -0.866025 0)
(0.5 -0.866025 0)
(0.5 0.866025 1.87789e-18)
(1 0 0)
(1 0 0)
(0.5 -0.866025 0)
(-1 0 0)
(-0.5 -0.866025 1.87789e-18)
(-0.5 -0.866025 0)
(0.5 -0.866025 0)
(1 0 0)
(0.5 0.866025 0)
(1 0 0)
(0.5 -0.866025 -1.87789e-18)
(-0.5 -0.866025 -1.87789e-18)
(-1 0 0)
(-0.5 -0.866025 0)
(0.5 0.866025 0)
(1 -3.81051e-08 0)
(0.5 -0.866025 0)
(-1 0 0)
(-0.5 -0.866025 0)
(0.5 -0.866025 0)
(1 0 0)
(0.5 -0.866025 0)
(-0.5 -0.866025 1.87789e-18)
(-1 0 0)
(-0.5 0.866025 0)
(1 0 0)
(0.5 -0.866025 0)
(-1 0 0)
(-0.5 -0.866025 0)
(-0.5 -0.866025 0)
(0.5 -0.866025 0)
(1 3.81051e-08 0)
(0.5 0.866025 0)
(1 0 0)
(0.5 -0.866025 0)
(-0.5 -0.866025 0)
(-1 0 0)
(-0.5 -0.866025 0)
(0.5 0.866025 0)
(1 0 0)
(0.5 -0.866025 0)
(-1 0 0)
(-0.5 -0.866025 0)
(0.5 -0.866025 0)
(1 0 0)
(0.5 -0.866025 0)
(-0.5 -0.866025 0)
(-0.5 0.866025 0)
(-1 0 0)
(1 0 0)
(0.5 -0.866025 0)
(-0.5 -0.866025 0)
(-1 0 0)
(-0.5 -0.866025 0)
(0.5 0.866025 0)
(1 0 0)
(0.5 -0.866025 0)
(-1 0 0)
(-0.5 -0.866025 0)
(0.5 -0.866025 0)
(1 0 0)
(0.5 -0.866025 0)
(-0.5 -0.866025 0)
(-1 0 0)
(-0.5 0.866025 0)
(-1 0 0)
(1 0 0)
(-0.5 -0.866025 -1.87789e-18)
(0.5 -0.866025 1.87789e-18)
(0.5 -0.866025 1.87789e-18)
(-0.5 -0.866025 0)
(-1 0 0)
(-0.5 0.866025 -1.87789e-18)
(-0.5 -0.866025 -1.87789e-18)
(0.5 -0.866025 1.87789e-18)
(0.5 0.866025 0)
(1 0 0)
(-1 0 0)
(-0.5 -0.866025 0)
(0.5 -0.866025 1.87789e-18)
(1 0 0)
(-0.5 0.866025 1.87789e-18)
(-1 0 0)
(0.5 -0.866025 0)
(-0.5 -0.866025 0)
(-0.5 -0.866025 0)
(-1 0 0)
(-0.5 0.866025 0)
(0.5 0.866025 0)
(-0.5 0.866025 0)
(-1 0 0)
(-0.5 -0.866025 0)
(0.5 -0.866025 0)
(1 0 0)
(0.5 -0.866025 1.87789e-18)
(-0.5 -0.866025 0)
(-1 0 0)
(-0.5 -0.866025 -1.87789e-18)
(-1 0 0)
(-0.5 0.866025 0)
(0.5 0.866025 1.87789e-18)
(-0.5 0.866025 0)
(-1 0 0)
(-0.5 -0.866025 1.87789e-18)
(0.5 -0.866025 0)
(-0.500068 -0.865986 -1.87798e-18)
(0.5 0.866025 1.87789e-18)
(-0.5 0.866025 -1.87806e-18)
(-1 0 0)
(0.5 -0.866025 0)
(-0.500059 -0.865992 0)
(-1 7.90749e-05 0)
(-0.5 0.866025 1.87804e-18)
(-1 0 0)
(-0.5 -0.866025 -1.87789e-18)
(0.5 -0.866025 0)
(1 0 0)
(-1 0 0)
(-0.5 0.866025 -1.87789e-18)
(0.5 0.866025 0)
(1 0 0)
(0.5 0.866025 0)
(-0.5 0.866025 -1.87789e-18)
(-1 -7.90821e-05 0)
(-0.5 -0.866025 0)
(-1 0 0)
(-0.5 0.866025 0)
(1 0 0)
(0.5 0.866025 1.87789e-18)
(0.5 0.866025 1.87789e-18)
(-0.500336 0.865832 0)
(-0.5 -0.866025 0)
(-1 0 0)
(-1 0 0)
(-0.5 0.866025 -1.87789e-18)
(1 0 0)
(0.5 0.866025 0)
(0.5 -0.866025 0)
(-0.5 -0.866025 0)
(-1 6.7776e-05 -2.29226e-22)
(-0.5 0.866025 -1.87789e-18)
(-1 0 0)
(-0.5 -0.866025 0)
(0.5 -0.866025 1.87789e-18)
(1 0 0)
(0.5 -0.866025 0)
(1 2.39023e-07 8.95449e-25)
(0.5 0.866025 0)
(-0.5 0.866025 0)
(0.5 0.866025 0)
(1 0 0)
(0.5 -0.866025 0)
(-0.5 -0.866025 0)
(0.5 -0.866025 0)
(1 0 0)
(0.5 0.866026 0)
(-0.5 0.866025 0)
(0.5 0.866025 0)
(1 0 0)
(-0.5 -0.866025 0)
(0.5 -0.866025 0)
(0.5 -0.866025 0)
(1 1.60388e-06 0)
(-0.5 0.866025 0)
(0.5 0.866025 0)
(0.5 0.866025 0)
(1 0 0)
(0.5 -0.866025 0)
(-0.5 -0.866025 0)
(0.5 -0.866025 0)
(1 0 0)
(0.499999 0.866026 -1.87789e-18)
(-0.5 0.866025 0)
(-0.5 -0.866025 0)
(0.5 0.866025 0)
(0.5 -0.866025 0)
(1 0 0)
(1 0 0)
(0.5 -0.866025 0)
(-0.5 -0.866025 0)
(-1 0 0)
(-0.5 -0.866025 -1.87789e-18)
(0.5 -0.866025 1.87789e-18)
(1 0 0)
(0.5 0.866025 -1.87789e-18)
(1 0 0)
(0.5 -0.866025 1.87789e-18)
(-1 0 0)
(-0.5 -0.866025 -1.87789e-18)
(-0.5 -0.866025 -1.87789e-18)
(0.5 -0.866025 1.87789e-18)
(0.5 0.866025 -1.87789e-18)
(1 0 0)
(1 0 0)
(0.5 -0.866025 1.87789e-18)
(-0.5 -0.866025 -1.87789e-18)
(-1 0 0)
(-0.5 -0.866025 -1.87789e-18)
(0.5 -0.866025 0)
(1 0 0)
(0.5 0.866025 -1.87789e-18)
(-1 0 0)
(1 0 0)
(-0.497618 -0.867396 0)
(0.5 -0.866025 1.87789e-18)
(0.5 -0.866025 1.87789e-18)
(-0.5 -0.866025 0)
(-1 0 0)
(-0.5 0.866025 0)
(0.5 0.866025 -1.87789e-18)
(1 0 0)
(0.497618 -0.867396 1.88087e-18)
(-0.497959 -0.8672 1.88044e-18)
(0.5 -0.866025 1.87789e-18)
(1 0 0)
(0.5 0.866025 -1.87789e-18)
(-0.5 0.866025 1.87789e-18)
(0.5 0.866025 -1.87789e-18)
(1 -4.40259e-05 2.29365e-22)
(-0.499594 -0.866259 -1.8785e-18)
(0.497959 -0.8672 -1.88044e-18)
(0.5 -0.866025 1.87789e-18)
(1 0 0)
(-0.5 0.866025 1.87789e-18)
(0.5 0.866025 -1.87789e-18)
(0.5 0.866025 0)
(1 -0.000125176 -4.58538e-22)
(0.499556 -0.866281 1.87835e-18)
(-0.499943 -0.866058 0)
(0.5 -0.866025 1.87789e-18)
(1 0 0)
(0.5 0.866025 -1.87789e-18)
(-0.5 0.866025 1.87789e-18)
(0.5 0.866025 -1.87789e-18)
(1 0 0)
(0.499835 -0.866121 0)
(-0.5 -0.866025 -1.87789e-18)
(-0.5 0.866025 1.87789e-18)
(0.50177 -0.865001 -1.88011e-18)
(0.5 0.866025 -1.88233e-18)
(1 0 0)
(1 0 0)
(0.5 0.866025 -1.87789e-18)
(-0.5 0.866025 1.87789e-18)
(-1 0 0)
(-0.499995 -0.866029 0)
(0.5 -0.866025 0)
(-1 -2.72625e-06 0)
(-0.5 0.866025 0)
(0.5 0.866025 0)
(-0.5 0.866025 0)
(1 9.63026e-06 0)
(-1 -1.42375e-06 -7.1636e-24)
(-0.5 0.866025 0)
(0.5 0.866025 0)
(0.5 -0.866025 0)
(1 0 0)
(1 0 0)
(0.499962 0.866047 0)
(-1 -4.39086e-05 2.29241e-22)
(-0.5 0.866025 0)
(-0.5 -0.866025 -1.92692e-18)
(0.510654 -0.859787 -1.89114e-18)
(0.999796 -0.0202215 -1.18715e-19)
(0.5 0.866025 0)
(0.999993 -0.00368035 -1.47021e-20)
(0.518663 -0.854978 0)
(-0.500057 -0.865993 0)
(-1 0.000612313 3.66906e-21)
(-0.999858 0.0168231 0)
(0.998643 -0.0520835 0)
(0.422117 -0.906541 0)
(-0.589587 -0.807705 0)
(-0.5 -0.866025 0)
(0.5 -0.866025 0)
(1 0 0)
(0.5 0.866025 0)
(1 0 0)
(-1 0 0)
(-0.5 -0.866025 0)
(0.5 -0.866025 0)
(-0.5 0.866025 1.87789e-18)
(0.5 0.866025 -1.87789e-18)
(0.999998 -0.00204561 -7.34417e-21)
(0.5 -0.866025 1.87789e-18)
(0.5 0.866025 1.87789e-18)
(-0.5 0.866025 -1.87789e-18)
(-1 -0.00038737 0)
(-0.5 -0.866025 1.87789e-18)
(-1 0 0)
(-0.5 0.866025 -1.87789e-18)
(0.5 0.866025 1.87789e-18)
(1 0 0)
(-0.500476 -0.865751 0)
(0.5 -0.866025 1.87878e-18)
(-0.505447 0.862857 0)
(-1 -1.92311e-05 0)
(0.5 -0.866025 0)
(-0.5 0.866025 0)
(-0.999999 -0.00138682 7.34139e-21)
(-0.5 -0.866025 1.87789e-18)
(1 0 0)
(0.5 -0.866025 0)
(-0.501201 -0.865331 0)
(-1 0 0)
(-0.5 -0.866025 0)
(0.5 0.866025 0)
(1 0 0)
(0.5 -0.866025 0)
(-1 0 0)
(-0.5 -0.866025 0)
(0.5 -0.866025 0)
(1 0 0)
(0.5 -0.866025 0)
(-0.507217 -0.861818 0)
(-0.999999 0.0013846 0)
(-0.5 0.866025 1.8961e-18)
(1 0 0)
(-1 0 0)
(-0.499943 -0.866058 0)
(0.5 -0.866025 0)
(-0.4995 -0.866314 1.88022e-18)
(0.5 0.866025 0)
(1 -0.000785817 0)
(0.50005 -0.865997 0)
(-0.999735 0.023008 0)
(-0.5 -0.866025 0)
(0.482864 -0.875696 0)
(1 0 0)
(-0.5 0.866025 0)
(0.5 0.866025 0)
(0.999972 0.00743238 0)
(0.5 -0.866025 0)
(0.999999 0.00123435 0)
(0.506244 0.86239 -1.88568e-18)
(-0.5 0.866025 1.88048e-18)
(-1 -0.000205602 0)
(-0.5 -0.866025 0)
(-1 0 0)
(-0.5 0.866025 0)
(0.5 0.866025 1.87789e-18)
(-0.5 0.866025 0)
(-1 0 0)
(-0.5 -0.866025 0)
(0.5 -0.866025 -1.87789e-18)
(-1 0 0)
(1 0 0)
(0.5 0.866025 -1.87789e-18)
(-0.5 0.866025 0)
(-0.5 -0.866025 -1.87789e-18)
(-1 0 0)
(0.5 0.866025 -1.87789e-18)
(-0.5 0.866025 0)
(0.5 -0.866025 0)
(-0.497916 0.867225 0)
(-0.528315 -0.849048 0)
(-0.999966 0.00827425 2.92009e-20)
(-0.458039 -0.888932 0)
(0.483025 0.875606 0)
(0.636192 -0.771531 0)
(0.999454 0.0330557 0)
(0.5 0.866025 0)
(1 0 0)
(0.5 -0.866025 0)
(-0.5 -0.866025 0)
(0.498845 0.866691 -1.8831e-18)
(-0.5 -0.866025 0)
(-0.999998 0.00173727 0)
(-0.501588 0.865107 -1.87988e-18)
(1 0 0)
(0.5 0.866025 1.87789e-18)
(-0.50265 0.86449 1.87832e-18)
(-1 0 0)
(0.5 -0.866025 1.87789e-18)
(1 0.000564989 0)
(-0.5 0.866025 1.87912e-18)
(0.5 0.866025 0)
(-0.5 0.866025 -1.87789e-18)
(0.5 0.866025 0)
(1 0 0)
(0.5 -0.866025 0)
(-1 0 0)
(-0.5 0.866025 0)
(1 2.17479e-05 -1.14619e-22)
(0.5 0.866025 1.87789e-18)
(0.496787 0.867873 1.87386e-18)
(-0.504765 0.863257 -1.86665e-18)
(-0.999985 -0.00544528 0)
(-0.493065 -0.869992 1.88121e-18)
(-1 -0.000619325 0)
(-0.5 0.866025 1.87009e-18)
(0.499483 0.866324 0)
(1 0.000103191 0)
(0.5 -0.866025 0)
(-0.5 -0.866025 0)
(-1 0 0)
(-0.5 0.866025 0)
(0.496725 -0.867908 -1.87378e-18)
(-0.5 -0.866025 0)
(-0.499454 0.866341 0)
(-0.999993 0.00379364 0)
(0.5 -0.866025 -1.8779e-18)
(1 1.46878e-06 0)
(-0.5 0.866025 0)
(0.500002 0.866024 0)
(-1 0 0)
(-0.49966 -0.866221 -1.87832e-18)
(0.498016 -0.867168 0)
(1 0 0)
(-1 0.000714405 0)
(0.999659 -0.0260976 1.12424e-19)
(-0.544967 -0.838458 -1.92637e-18)
(0.522567 -0.852598 0)
(0.500955 -0.865473 -1.88421e-18)
(-0.50034 -0.865829 -1.87872e-18)
(-1 9.61351e-05 4.59709e-22)
(-0.49954 0.866291 -1.87817e-18)
(-0.999999 0.00139423 0)
(0.99168 -0.128726 0)
(-0.491018 -0.87115 2.18037e-18)
(0.544065 -0.839043 -1.81628e-18)
(0.507104 -0.861885 0)
(-0.545375 -0.838192 -1.82065e-18)
(-0.999735 0.0230151 0)
(-0.5 0.866025 0)
(0.5 -0.866025 0)
(1 0 0)
(0.5 0.866025 0)
(-0.5 0.866025 0)
(0.5 0.866025 1.87789e-18)
(-0.513785 -0.857919 0)
(-0.524125 0.851642 0)
(-0.999526 -0.0307842 0)
(-0.525828 0.850591 0)
(0.544752 0.838597 0)
(0.992517 -0.12211 -5.09098e-19)
(0.549203 -0.835689 2.04782e-18)
(0.497618 -0.867396 1.88087e-18)
(-0.505523 -0.862813 1.79704e-18)
(-0.99956 0.0296642 0)
(-0.461484 0.887148 0)
(0.929788 0.368096 -1.15978e-18)
(-0.614457 -0.78895 0)
(0.0970583 0.995279 0)
(0.915827 -0.401573 1.74146e-18)
(0.436711 -0.899602 0)
(0.496162 0.86823 0)
(-0.488604 -0.872506 0)
(-0.506405 0.862296 0)
(-0.999998 -0.00199511 -7.29724e-21)
(-0.516393 0.856352 0)
(0.521867 -0.853027 0)
(0.495017 0.868883 1.92774e-18)
(0.999962 0.00869267 2.88535e-20)
(-0.512127 0.85891 1.89295e-18)
(-1 -0.000491946 0)
(-0.5 -0.866025 0)
(0.502015 -0.864859 0)
(1 0.000120389 0)
(-0.999996 0.00277527 0)
(0.499671 0.866215 0)
(-0.5 0.866025 0)
(-0.5 0.866025 0)
(0.499916 0.866074 -1.87779e-18)
(1 1.55124e-05 0)
(0.5 -0.866025 0)
(0.5 0.866025 1.87789e-18)
(0.5 -0.866025 0)
(-0.5 0.866025 0)
(1 0 0)
(0.5 -0.866025 -1.87789e-18)
(1 3.90059e-06 0)
(0.499981 0.866036 -1.87787e-18)
(-0.5 0.866025 0)
(0.5 -0.866025 0)
(-0.5 0.866025 1.87789e-18)
(-1 0 0)
(-0.5 -0.866025 -1.87789e-18)
(-1 0 0)
(-0.5 -0.866025 0)
(1 0 0)
(0.5 -0.866025 0)
(0.5 -0.866025 0)
(-0.5 -0.866025 0)
(-1 0 0)
(-0.5 0.866025 0)
(-1 -0.000239874 0)
(0.999986 -0.00537403 2.9135e-20)
(-0.502973 0.864302 0)
(0.490774 0.871287 0)
(0.501004 0.865445 0)
(-0.5 0.866025 -1.87831e-18)
(-1 -3.03287e-05 1.1462e-22)
(-0.49996 -0.866049 1.87784e-18)
(-1 -0.00061188 0)
(-0.489611 -0.871941 0)
(0.498051 -0.867148 0)
(0.999972 -0.00746211 2.99546e-20)
(-0.514307 0.857606 -1.89282e-18)
(-0.999861 -0.0166959 0)
(0.509552 -0.86044 0)
(-0.496771 -0.867882 0)
(0.999778 0.0210741 -1.17245e-19)
(-0.487563 -0.873088 1.89265e-18)
(0.50789 -0.861422 -1.67078e-18)
(0.39928 0.916829 -1.76475e-18)
(-0.515167 -0.85709 0)
(0.506163 0.862438 -1.71211e-18)
(0.425542 -0.904938 0)
(0.999851 -0.0172521 0)
(0.999996 -0.00289983 0)
(0.5 -0.866025 0)
(-1 0.000483983 1.83337e-21)
(-0.502518 -0.864567 -1.88104e-18)
(-0.494624 0.869107 1.84466e-18)
(-0.99999 0.00436516 1.44637e-20)
(-0.492115 -0.87053 0)
(0.501849 0.864955 1.87435e-18)
(-0.526311 0.850292 0)
(0.414041 0.910258 0)
(0.577034 -0.81672 0)
(0.99986 -0.0167582 0)
(1 -7.69066e-05 0)
(0.500011 0.866019 0)
(-0.49961 0.86625 -1.87642e-18)
(-1 0.000594457 0)
(1 0 0)
(0.5 -0.866025 0)
(0.5 0.866025 0)
(-0.5 -0.866025 1.87789e-18)
(1 0 0)
(0.5 0.866025 -1.87789e-18)
(-0.5 0.866025 1.87789e-18)
(-1 0 0)
(0.5 0.866025 0)
(-0.5 -0.866025 -1.87767e-18)
(-0.499909 0.866078 1.87778e-18)
(-1 0.000631126 0)
(-0.5 -0.866025 1.87789e-18)
(-1 0 0)
(-0.5 0.866025 -1.87789e-18)
(0.5 0.866025 -1.87789e-18)
(0.505194 0.863006 0)
(0.999518 -0.0310357 0)
(-0.500886 -0.865513 0)
(0.505782 -0.862662 0)
(0.484482 -0.874801 0)
(0.999893 -0.01461 0)
(-0.5 0.866025 1.87789e-18)
(0.4502 0.892928 0)
(0.5 -0.866025 0)
(-1 0 0)
(1 0 0)
(-0.5 -0.866025 0)
(1 0 0)
(-0.5 0.866025 0)
(0.5 -0.866025 1.87789e-18)
(0.5 0.866025 0)
(-0.453407 -0.891304 0)
(-0.999996 -0.00294748 0)
(0.5 0.866025 1.90204e-18)
(-0.479637 0.877467 0)
(0.774615 -0.632433 0)
(0.433977 0.900924 1.98872e-18)
(-0.0481427 -0.99884 2.42786e-19)
(0.963698 0.266994 0)
(-0.694922 -0.719085 0)
(-0.5 0.866025 0)
(-1 0 0)
(0.5 -0.866025 -1.87789e-18)
(-0.4988 -0.866717 -1.87639e-18)
(0.512731 0.858549 0)
(-0.445882 0.895092 0)
(-0.999895 0.0145163 5.81862e-20)
(-0.487026 -0.873387 1.7316e-18)
(-0.999997 0.00243665 0)
(-0.5 0.866025 -1.90927e-18)
(0.502056 0.864835 1.88046e-18)
(1 -0.000406587 1.83345e-21)
(-1 0 0)
(-0.5 0.866025 0)
(0.500489 0.865743 -1.87851e-18)
(1 0.000484254 0)
(0.5 -0.866025 0)
(-0.5 0.866025 0)
(1 -1.07733e-05 0)
(0.499986 0.866033 0)
(0.499973 0.866041 0)
(0.5 -0.866025 0)
(-0.499914 -0.866075 0)
(1 6.20769e-06 0)
(-1 0.000153218 0)
(-0.500194 0.865913 1.87808e-18)
(0.498696 0.866777 1.88373e-18)
(1 -0.000958202 -3.66478e-21)
(-0.500161 -0.865933 0)
(-1 2.14529e-05 0)
(0.500186 0.865918 1.87813e-18)
(-0.5 0.866025 1.87796e-18)
(-0.5 0.866025 0)
(-1 -1.05171e-05 5.73091e-23)
(-0.500028 -0.866009 1.87793e-18)
(0.5 -0.866025 0)
(-0.500036 -0.866005 0)
(-1 6.75844e-06 0)
(-0.5 0.866025 1.87794e-18)
(0.500061 0.86599 -1.87797e-18)
(-0.5 0.866025 0)
(0.5 -0.866025 0)
(-1 -3.78627e-06 1.43272e-23)
(-0.500006 -0.866022 0)
(-0.500008 -0.866021 0)
(-0.5 0.866025 0)
(-1 1.85676e-06 0)
(0.500017 0.866016 1.87791e-18)
(-0.551734 0.83402 1.92153e-18)
(-0.99994 -0.0109743 6.02895e-20)
(0.484331 -0.874885 0)
(-0.492143 -0.870514 -2.00411e-18)
(-0.510021 0.860162 0)
(0.49844 0.866924 0)
(0.993653 0.112485 0)
(0.535667 -0.844429 0)
(-0.993854 0.110695 0)
(0.824434 -0.565959 -2.33056e-18)
(-0.0431426 -0.999069 1.28543e-19)
(0.968735 0.248097 0)
(-0.698342 -0.715765 0)
(-0.499156 0.866512 0)
(-0.999761 0.0218663 0)
(-0.489925 -0.871764 0)
(0.479479 -0.877553 -1.85695e-18)
(-1 -0.000435628 1.89751e-21)
(1 0 0)
(0.47475 -0.880121 -1.90939e-18)
(-0.50237 -0.864652 0)
(-0.520984 0.853567 0)
(-0.999179 -0.040525 2.17722e-19)
(-0.454115 -0.890943 1.93848e-18)
(0.538996 -0.842308 0)
(-0.502033 -0.864849 0)
(0.502784 -0.864412 0)
(0.497771 0.867308 0)
(1 0 0)
(0.511261 0.859425 -1.94397e-18)
(-0.594188 -0.804326 0)
(-0.491502 0.870877 0)
(-0.992745 0.120239 0)
(-0.999762 0.0217987 0)
(0.999976 -0.00692085 0)
(-0.514939 0.857227 0)
(0.500444 0.865769 0)
(-0.860214 0.509934 0)
(-0.903248 -0.429119 0)
(0.528548 -0.848903 0)
(-0.287449 -0.957796 0)
(-0.175435 0.984491 9.83747e-19)
(0.5694 -0.822061 0)
(-0.629899 0.776677 0)
(-0.382673 -0.923884 0)
(-0.989856 -0.142075 0)
(-0.999766 -0.0216273 1.15996e-19)
(0.999976 0.00687584 0)
(-0.490305 -0.871551 0)
(0.530229 -0.847855 0)
(0.500001 0.866025 1.87789e-18)
(1 2.48723e-06 1.43272e-23)
(0.5 -0.866025 0)
(-0.5 -0.866025 0)
(1 -0.000250918 0)
(-1 0 0)
(-0.51192 0.859033 1.86218e-18)
(0.524136 0.851634 0)
(-0.405774 -0.913973 0)
(0.500406 0.865791 0)
(-0.537272 0.843409 1.71666e-18)
(-0.998828 -0.0484104 2.2557e-19)
(-0.659212 0.751957 -1.9724e-18)
(0.661061 -0.750332 0)
(-0.429615 -0.903012 0)
(-0.980307 -0.197482 0)
(-0.508574 -0.861018 -1.91753e-18)
(0.5 0.866025 1.88587e-18)
(-0.499367 0.86639 0)
(-0.999993 0.00382103 0)
(0.486223 -0.873835 0)
(-1 0.000668158 3.79054e-21)
(-0.497205 0.867633 0)
(-0.546591 -0.8374 1.86371e-18)
(-1 0 0)
(0.5 -0.866025 1.87789e-18)
(1 0 0)
(-0.5 -0.866025 -1.87789e-18)
(-0.5 0.866025 0)
(-1 0 0)
(-0.5 -0.866025 -1.87789e-18)
(0.5 -0.866025 1.87789e-18)
(0.5 0.866025 0)
(-0.5 0.866025 0)
(-1 0 0)
(-0.5 -0.866025 0)
(-1 0.000117893 -4.58439e-22)
(1 -3.07745e-05 0)
(0.500009 0.86602 0)
(-0.5 0.866025 0)
(0.5 -0.866025 0)
(1 -4.09802e-06 0)
(0.499991 0.86603 0)
(-0.5 0.866025 0)
(-1 6.13124e-05 2.29227e-22)
(-0.5 0.866025 0)
(0.500033 0.866007 0)
(1 -0.000228933 0)
(0.531448 0.847091 0)
(-0.505239 -0.862979 1.87241e-18)
(0.508354 -0.861148 0)
(0.997064 -0.0765754 -4.54525e-19)
(-0.406178 -0.913794 0)
(0.605216 0.796062 0)
(-0.863206 0.504851 0)
(-0.96554 -0.260255 1.08543e-18)
(-0.247018 0.969011 0)
(-0.52033 -0.853965 0)
(0.456655 -0.889644 2.16909e-18)
(0.619998 0.784604 1.92023e-18)
(0.994335 -0.10629 0)
(0.999845 0.0176027 0)
(-1 0.00056462 1.83328e-21)
(-0.499581 -0.866267 0)
(0.499306 -0.866425 -1.92773e-18)
(0.502194 -0.864755 0)
(-0.999997 0.0023546 8.79428e-21)
(-0.475014 -0.879978 0)
(-0.583931 0.811803 0)
(0.999991 0.00421282 -1.76308e-20)
(-0.49159 -0.870827 -2.11359e-18)
(0.48021 -0.877153 0)
(0.515798 0.85671 0)
(0.965094 0.261902 0)
(0.710836 -0.703357 -2.28774e-18)
(-0.014109 -0.9999 0)
(-0.964205 0.265158 -1.72491e-18)
(0.964662 0.263489 0)
(0.729807 -0.683653 0)
(0.00582484 -0.999983 0)
(-0.964265 0.264939 1.72481e-18)
(0.083296 -0.996525 0)
(-0.965155 0.261677 -1.72577e-18)
(0.967251 0.253823 0)
(0.964234 0.265052 -1.72422e-18)
(-0.0214619 -0.99977 0)
(-0.787191 -0.616709 0)
(-0.972187 0.234208 9.15774e-19)
(0.647818 0.761795 0)
(-0.103477 -0.994632 4.67617e-19)
(0.971891 -0.235431 0)
(0.475198 0.879879 0)
(0.964091 0.26557 1.72368e-18)
(-0.428113 -0.903725 2.93946e-18)
(0.891695 -0.452637 0)
(-0.588833 0.808255 0)
(0.281972 -0.959423 0)
(0.178542 0.983932 0)
(-0.908903 -0.417008 0)
(0.552887 0.833256 0)
(-0.25001 0.968243 0)
(-0.199551 -0.979887 9.57951e-19)
(0.538276 -0.842769 2.29945e-18)
(-0.450325 0.892865 0)
(0.642353 0.766409 0)
(0.99986 -0.0167382 0)
(-0.341795 -0.939775 0)
(0.732813 -0.68043 0)
(0.945505 0.325608 -1.12562e-18)
(0.375592 0.926785 1.09928e-18)
(0.590625 -0.806946 0)
(-0.702608 0.711578 0)
(-0.471975 -0.881612 0)
(-0.998263 -0.0589154 0)
(0.497599 0.867407 0)
(-0.460948 -0.887427 0)
(-0.49977 0.866158 -1.8144e-18)
(-1 0.000933429 -3.66769e-21)
(-0.500782 -0.865573 1.87887e-18)
(0.500023 0.866012 -1.87792e-18)
(-0.5 -0.866025 -1.87789e-18)
(-0.0406018 -0.999175 -2.18474e-19)
(0.885406 0.464819 0)
(0.814577 -0.580055 0)
(-1 -1.11302e-05 0)
(0.5 -0.866025 -1.87799e-18)
(1 4.5031e-05 0)
(0.5 -0.866025 0)
(-0.5 -0.866025 0)
(-1 0 0)
(-0.500001 -0.866025 0)
(1 -1.46531e-06 -7.16359e-24)
(0.5 -0.866025 0)
(0.970703 -0.240284 1.03513e-18)
(0.79164 0.610988 0)
(0.5 -0.866025 -1.87772e-18)
(1 6.77847e-05 -2.29244e-22)
(-0.5 0.866025 0)
(-0.5 0.866025 0)
(0.517781 0.855513 1.90506e-18)
(1 0 0)
(0.999832 0.0183498 0)
(0.480287 0.877111 0)
(-0.99989 0.0148305 0)
(-0.480955 0.876745 0)
(-0.502419 0.864624 0)
(0.5 -0.866025 0)
(0.99236 0.12338 0)
(0.659951 0.751309 1.88225e-18)
(0.845004 0.53476 0)
(-0.964205 -0.265158 0)
(0.0795169 0.996834 0)
(0.971997 -0.234993 9.51255e-19)
(-0.471439 -0.881899 -1.91631e-18)
(-0.962554 -0.271092 0)
(0.67004 0.742325 0)
(0.0205387 0.999789 -6.65334e-20)
(0.5 -0.866025 0)
(-0.5 0.866025 1.8779e-18)
(0.5 -0.866025 -1.87789e-18)
(-0.5 -0.866025 0)
(-0.5 0.866025 -1.87789e-18)
(-1 0 0)
(-0.5 -0.866025 1.87789e-18)
(1 0 0)
(0.5 -0.866025 0)
(0.5 -0.866025 0)
(-0.5 -0.866025 0)
(-1 0 0)
(0.5 0.866025 -1.87789e-18)
(-0.7043 -0.709902 -2.02242e-18)
(-0.670858 0.741586 0)
(-0.493053 0.87 0)
(0.499997 0.866027 1.87789e-18)
(-0.5 0.866025 0)
(0.871161 0.490997 0)
(0.837236 -0.546841 1.74616e-18)
(-0.00409659 -0.999992 0)
(-0.13565 -0.990757 0)
(0.520444 0.853896 -1.97573e-18)
(0.999108 0.0422235 0)
(0.661159 -0.750246 1.86912e-18)
(-0.294308 0.955711 9.392e-19)
(-0.883362 -0.468691 0)
(-0.0227353 -0.999742 0)
(0.970015 0.243044 0)
(0.777844 -0.628457 0)
(-0.5 -0.866025 0)
(0.700137 -0.714009 0)
(0.621687 0.783265 0)
(0.51828 -0.855211 0)
(-0.5 -0.866025 -1.88736e-18)
(0.999862 0.0166082 -6.07794e-20)
(0.498148 -0.867092 0)
(-1 8.23386e-05 0)
(-0.465811 -0.884884 -1.92982e-18)
(-0.503864 -0.863783 -2.10833e-18)
(0.323083 -0.946371 0)
(0.101063 0.99488 -5.25769e-19)
(-1 -0.000203052 0)
(0.999669 -0.0257178 0)
(-0.489862 -0.8718 0)
(-0.999998 0.00199421 7.35625e-21)
(-0.475625 -0.879648 -1.91523e-18)
(0.500785 -0.865571 0)
(-0.0402509 0.99919 0)
(-0.931749 0.363104 -1.77423e-18)
(-0.800364 -0.599515 1.80645e-18)
(-0.889719 0.456508 0)
(-0.867173 -0.498006 0)
(-0.110145 -0.993916 0)
(-0.994803 -0.101814 4.49487e-19)
(-0.495745 0.868468 -1.80009e-18)
(-0.564174 -0.825656 0)
(-0.624893 0.78071 -1.85402e-18)
(0.302573 -0.953126 0)
(0.48581 -0.874064 0)
(-0.526174 -0.850377 1.88072e-18)
(-0.999994 0.0034973 0)
(-0.999983 0.00589913 0)
(-0.511325 -0.859387 0)
(0.497656 -0.867374 0)
(0.485915 -0.874006 1.88694e-18)
(-0.532621 -0.846354 0)
(-0.414801 0.909912 0)
(-0.999873 0.0159099 0)
(-0.514984 -0.857199 0)
(0.999986 -0.00520354 0)
(0.486616 -0.873616 0)
(-0.99996 0.00896577 -5.35393e-20)
(-0.473275 -0.880915 1.789e-18)
(0.52026 -0.854008 0)
(0.999524 0.0308516 -1.16284e-19)
(0.543155 -0.839633 0)
(-0.497848 -0.867264 2.08815e-18)
(-0.999198 -0.0400543 -2.1976e-19)