/*--------------------------------*- C++ -*----------------------------------*\
| =========                 |                                                 |
| \\      /  F ield         | OpenFOAM: The Open Source CFD Toolbox           |
|  \\    /   O peration     | Version:  2.4.0                                 |
|   \\  /    A nd           | Web:      www.OpenFOAM.org                      |
|    \\/     M anipulation  |                                                 |
\*---------------------------------------------------------------------------*/
FoamFile
{
    version     2.0;
    format      ascii;
    class       surfaceScalarField;
    location    "0";
    object      faceArea;
}
// * * * * * * * * * * * * * * * * * * * * * * * * * * * * * * * * * * * * * //

dimensions      [0 2 0 0 0 0 0];

internalField   nonuniform List<scalar> 
1456
(
0.00319979
0.00319979
0.00589256
0.00319979
0.00319979
0.00589256
0.00319979
0.00319979
0.00589256
0.00319979
0.00319979
0.00589256
0.0037978
0.00610042
0.00762671
0.00286446
0.00698604
0.00692247
0.00360844
0.00682749
0.00721688
0.00334514
0.0070889
0.00721688
0.00349085
0.0070889
0.00715881
0.00360844
0.00715881
0.00721688
0.00302057
0.00683211
0.00721688
0.0042908
0.00704946
0.0072109
0.00380043
0.00718868
0.0079341
0.00360844
0.00743871
0.00721688
0.00360844
0.00721688
0.00721688
0.00351763
0.00702761
0.00721688
0.00360844
0.00731335
0.00721688
0.00335378
0.00709128
0.00721688
0.00365695
0.00709467
0.00720926
0.00349649
0.00727311
0.00730572
0.00360844
0.00721688
0.00701444
0.00351909
0.00721688
0.0070308
0.00610042
0.00731169
0.00387492
0.00610042
0.00779679
0.0027829
0.00688458
0.00688223
0.00370246
0.00679828
0.00723128
0.00271901
0.00681583
0.00729726
0.00416865
0.00681583
0.00714388
0.00365614
0.00786418
0.00727781
0.00360844
0.00721688
0.0072037
0.00374463
0.00721688
0.00710812
0.00427262
0.00773959
0.0074595
0.00377951
0.00739826
0.00770009
0.00351471
0.00752871
0.00688498
0.00289801
0.00688919
0.00679337
0.00309877
0.00688919
0.00692156
0.00343705
0.00712388
0.00703006
0.00365046
0.00729341
0.00714157
0.00404803
0.00718213
0.00777224
0.00281228
0.00683439
0.00710566
0.0038755
0.00687269
0.00688289
0.00610042
0.00779678
0.00351909
0.00610042
0.00731169
0.00359303
0.00723243
0.0070308
0.00360844
0.00718587
0.00721688
0.00360848
0.00721697
0.00721688
0.00360849
0.00721683
0.00721699
0.00360844
0.00721682
0.00721688
0.00360844
0.00721688
0.00721688
0.00360844
0.00721688
0.00721688
0.00360844
0.00721688
0.00721688
0.00360844
0.00721688
0.00721688
0.00360844
0.00721688
0.00721688
0.00360844
0.00721688
0.00721688
0.00360844
0.00721688
0.00721688
0.00360847
0.00721693
0.00721688
0.00360845
0.0072169
0.00721685
0.00360844
0.00721687
0.00721688
0.00358894
0.00717756
0.00721688
0.00342438
0.00701365
0.00723662
0.00610042
0.00723785
0.00379308
0.00610042
0.00763103
0.00274385
0.00693999
0.0069762
0.00370304
0.00670962
0.00722957
0.00279776
0.00662399
0.00729954
0.00406739
0.00706419
0.00687115
0.00360844
0.00799998
0.00721688
0.00358816
0.00709533
0.00721688
0.00329888
0.00731649
0.00698602
0.00338661
0.00683316
0.00714743
0.0042095
0.00737368
0.00738261
0.00374357
0.00740491
0.00768517
0.00360844
0.00721688
0.00716386
0.00352128
0.00721688
0.0071737
0.00359391
0.00720963
0.0071737
0.00357305
0.00716613
0.00720963
0.00349933
0.00723221
0.00693878
0.004127
0.00729026
0.00738031
0.00353402
0.00768384
0.00718586
0.00610042
0.00717405
0.00721688
0.00721688
0.00721688
0.00721688
0.00629836
0.0069869
0.00717155
0.00676248
0.00661802
0.00719728
0.00789941
0.00724364
0.00782192
0.00706621
0.00647504
0.007823
0.00787571
0.00683573
0.00684263
0.00777015
0.00773742
0.0072169
0.00721677
0.00721681
0.00721698
0.00626897
0.0059855
0.00746458
0.00817517
0.00783805
0.00677818
0.0083552
0.00723655
0.00740622
0.00721689
0.00721698
0.0072169
0.00721693
0.00664271
0.00782228
0.00695542
0.00729934
0.00647344
0.00668673
0.00545126
0.00648855
0.00600551
0.00672141
0.00783805
0.00729012
0.00611437
0.00721129
0.00720277
0.00721616
0.00720572
0.00671188
0.00755344
0.00675293
0.00648219
0.00642244
0.00676136
0.00674102
0.00585907
0.00686491
0.00716163
0.00618437
0.00687326
0.00727896
0.00721034
0.00721362
0.0071972
0.00721698
0.00640897
0.00680589
0.00690415
0.00661078
0.00661899
0.00656008
0.00759268
0.00688128
0.00647048
0.00633173
0.00609629
0.00642644
0.00783805
0.00828171
0.00750061
0.0061736
0.00694257
0.00643692
0.0075563
0.00643408
0.00652998
0.0069659
0.00777421
0.00765424
0.00578563
0.00663017
0.00647329
0.00649502
0.00721688
0.00721687
0.00721688
0.00721688
0.00719886
0.00733692
0.00674197
0.00679457
0.00728314
0.00654793
0.00663463
0.00666407
0.00642113
0.00664584
0.0059223
0.00731511
0.00663579
0.00720142
0.00730673
0.00674003
0.00679497
0.00721688
0.00721688
0.00721688
0.00721688
0.00721688
0.00721688
0.00721688
0.0072169
0.0072169
0.00721689
0.00721689
0.00721688
0.00721688
0.00721689
0.00721688
0.00721688
0.00721688
0.00721688
0.00721688
0.00721688
0.00721688
0.00721688
0.00721688
0.00721688
0.00721688
0.00721688
0.00721688
0.00721688
0.00721688
0.00721688
0.00721688
0.00721688
0.00721688
0.00721688
0.00721688
0.00721688
0.00721688
0.00721688
0.00721688
0.00721688
0.00721688
0.00721688
0.00721688
0.00721688
0.00721688
0.00721688
0.00721688
0.00721688
0.00721688
0.00721688
0.00721688
0.00721688
0.00721688
0.00721688
0.00721688
0.00721688
0.00721688
0.00721688
0.00721688
0.00721688
0.00721688
0.00721688
0.00721688
0.00721688
0.00721688
0.00721688
0.00721688
0.00721688
0.00721688
0.00721688
0.00721688
0.00721688
0.00721688
0.00721688
0.00721688
0.00721688
0.00721688
0.00721688
0.00721688
0.00721688
0.00721688
0.00721688
0.00721688
0.00721688
0.00721688
0.00721688
0.00721688
0.00721688
0.00721688
0.00721688
0.00721688
0.00721688
0.00721688
0.00721688
0.00721688
0.00721688
0.00721688
0.00721688
0.00721688
0.00721688
0.00721688
0.00721688
0.00721688
0.00721688
0.00721688
0.00721688
0.00721688
0.00721688
0.00721688
0.00721688
0.00721688
0.00721688
0.00721688
0.00721688
0.00721688
0.00721688
0.00721688
0.00721688
0.00721688
0.00721688
0.00721688
0.00721688
0.00721688
0.00721655
0.00721688
0.00721622
0.00721688
0.00721688
0.0072166
0.00721721
0.00721631
0.00721688
0.00721688
0.00721688
0.00721688
0.00721688
0.00721688
0.00721688
0.00721688
0.00721688
0.00721688
0.00721655
0.00721688
0.00721688
0.00721688
0.00721688
0.00721688
0.00721688
0.00721526
0.00721365
0.00721688
0.00721688
0.00721688
0.00721688
0.00721688
0.00721688
0.00721688
0.00721716
0.00721688
0.00721688
0.00721688
0.00721688
0.00721688
0.00721688
0.00721688
0.00721688
0.00721688
0.00721688
0.00721688
0.00721688
0.00721688
0.00721688
0.00721688
0.00721688
0.00721688
0.00721688
0.00721688
0.00721688
0.00721688
0.00721688
0.00721687
0.00721686
0.00721688
0.00721688
0.00721688
0.00721688
0.00721688
0.00721688
0.00721688
0.00721689
0.00721688
0.00721688
0.00721688
0.00721688
0.00721688
0.00721688
0.00721688
0.00721688
0.00721688
0.00721688
0.00721688
0.00721688
0.00721688
0.00721688
0.00721688
0.00721688
0.00721688
0.00721688
0.00721688
0.00721688
0.00721688
0.00721688
0.00721688
0.00721688
0.00721688
0.00721688
0.00721688
0.00721688
0.00721688
0.00721688
0.00719401
0.00720547
0.00721688
0.00721688
0.00721688
0.00721688
0.00721688
0.00721688
0.00719728
0.00720547
0.0072071
0.00721688
0.00721688
0.00721688
0.00721688
0.00721688
0.00721279
0.00721456
0.0072071
0.00721688
0.00721688
0.00721688
0.00721688
0.00721688
0.00721581
0.00721511
0.00721556
0.00721688
0.00721688
0.00721688
0.00721688
0.00721688
0.00721688
0.00721713
0.00721688
0.00721688
0.00720838
0.00719985
0.00721688
0.00721688
0.00721688
0.00721688
0.00721688
0.0072169
0.00721688
0.00721687
0.00721693
0.00721688
0.0072168
0.00721684
0.00721687
0.00721688
0.00721688
0.00721688
0.00721688
0.00721688
0.00721706
0.0072167
0.00721689
0.00703325
0.00716634
0.00713504
0.00711472
0.00720162
0.00712929
0.00718759
0.00721433
0.00656679
0.00785964
0.00701585
0.00723116
0.00721688
0.00721688
0.00721688
0.00721688
0.00721688
0.00721688
0.00721688
0.00721688
0.00721688
0.00721688
0.00720838
0.00721688
0.00721688
0.00721688
0.00721849
0.00721688
0.00721688
0.00721688
0.00721688
0.00721688
0.00716232
0.00721349
0.00718568
0.00721357
0.00720533
0.00721688
0.00721111
0.00721688
0.00721688
0.00721688
0.00721111
0.00721688
0.00721688
0.00721688
0.00721688
0.00721688
0.00721688
0.00721688
0.00721688
0.00721688
0.00721688
0.00718249
0.00722266
0.00714759
0.00721633
0.00721688
0.00721661
0.00721688
0.00720794
0.00721586
0.00720881
0.0072161
0.00712413
0.00721688
0.00732436
0.00721688
0.0071552
0.00721688
0.00718624
0.00721688
0.00721174
0.00718709
0.00720697
0.00721602
0.00721688
0.00721688
0.00721744
0.00721688
0.00721688
0.00721688
0.00721688
0.00721688
0.00721688
0.00721688
0.00721688
0.00721688
0.00721688
0.00721688
0.00721688
0.00721688
0.00721688
0.00695575
0.00710466
0.00725177
0.00719007
0.0059581
0.00679617
0.00695665
0.00721688
0.00721688
0.00721688
0.00721688
0.00719691
0.00720161
0.00719859
0.00720925
0.00721688
0.00721688
0.00721523
0.00721688
0.00721688
0.00721453
0.00721217
0.00721688
0.00721688
0.00721688
0.00721688
0.00721688
0.00721688
0.0072167
0.00721679
0.00721688
0.00723241
0.00726035
0.0072198
0.00720414
0.0072143
0.00724697
0.00721937
0.00721645
0.00721688
0.00721688
0.00721688
0.00721688
0.0072327
0.00703287
0.00721951
0.00720116
0.00721686
0.00721687
0.00721687
0.00721687
0.00719728
0.00721525
0.00720737
0.00721361
0.0072139
0.00753425
0.00703526
0.00750252
0.0071927
0.00721372
0.00719743
0.00721582
0.0076681
0.00670043
0.00621569
0.0074617
0.0072589
0.00744377
0.00719935
0.00721688
0.00721688
0.00721688
0.00721688
0.00721688
0.00721688
0.00692713
0.00698994
0.00707517
0.00708873
0.00642301
0.00665516
0.00661801
0.00720547
0.00754156
0.0073423
0.00733469
0.00584272
0.00661706
0.00642521
0.00778229
0.00626938
0.00723544
0.00720968
0.00728986
0.00725473
0.0072239
0.00715053
0.00703028
0.00733909
0.00715947
0.00721893
0.00710387
0.00720721
0.00721638
0.00723225
0.00722222
0.00725285
0.00722173
0.00721728
0.00721681
0.00721668
0.00721688
0.00721688
0.00721688
0.00721688
0.00721688
0.00721686
0.00721697
0.00721685
0.00721688
0.00721688
0.00721688
0.00721688
0.00721688
0.00721688
0.00721688
0.00721688
0.00721688
0.00721688
0.00721688
0.00721688
0.00721588
0.00726817
0.00721638
0.00710206
0.00721205
0.00721527
0.00721675
0.00721707
0.00721943
0.00707885
0.00679739
0.0070693
0.00715998
0.00717793
0.0071715
0.00712051
0.00722448
0.00716061
0.0081115
0.00767955
0.00714537
0.00791568
0.00754392
0.00729058
0.00722901
0.00707568
0.0072189
0.00720481
0.00734691
0.00732032
0.00731184
0.00723051
0.00732862
0.00684897
0.00768119
0.00733828
0.0072172
0.00721682
0.00722256
0.00721936
0.00721688
0.00721688
0.00721688
0.00721688
0.00721688
0.00721688
0.00721688
0.00721688
0.00721688
0.00721775
0.00721732
0.00721425
0.00721688
0.00721688
0.00721688
0.00721688
0.00712013
0.00710129
0.00696651
0.00714007
0.00779269
0.00720626
0.00721688
0.00763906
0.00721688
0.00721688
0.00721688
0.00721688
0.00721688
0.00721688
0.00721688
0.00721688
0.00764586
0.00722921
0.00712525
0.00778068
0.00625008
0.0068147
0.0069776
0.00726728
0.00616619
0.00721688
0.00721688
0.00721688
0.00722266
0.00715666
0.00763682
0.00727865
0.0078266
0.00722707
0.00709826
0.00720701
0.00721857
0.00721688
0.00721284
0.00721453
0.00721486
0.00721765
0.00721778
0.00721692
0.00721695
0.00721701
0.00721701
0.00721729
0.00721685
0.00721752
0.00721614
0.0071945
0.00722274
0.00721611
0.00721697
0.00721598
0.00721661
0.00721635
0.00721683
0.00721674
0.00721525
0.00721671
0.00721691
0.00721671
0.00721659
0.00721673
0.0072165
0.00721686
0.00721685
0.00721684
0.00721685
0.00721689
0.0072168
0.00705299
0.00702472
0.00705094
0.00676238
0.00694328
0.00688386
0.00759604
0.00706724
0.00673632
0.00581513
0.00658949
0.00728586
0.00607733
0.00721404
0.00756083
0.00631521
0.00729829
0.00697488
0.00721688
0.00709785
0.00722834
0.00729391
0.00778088
0.00699133
0.0073508
0.0072267
0.00722488
0.00720075
0.00721742
0.00697156
0.0068857
0.00637972
0.00702034
0.00701573
0.00719351
0.00704752
0.00692372
0.00657579
0.00676216
0.00689984
0.00710822
0.00688822
0.0069897
0.00758456
0.00637992
0.00752293
0.00730228
0.00724059
0.00664992
0.00706985
0.00721687
0.00721687
0.00721687
0.00721688
0.00733407
0.00721688
0.00727776
0.0070128
0.00728442
0.0072141
0.00789469
0.00751015
0.00687108
0.00686169
0.00580706
0.00764233
0.0070677
0.00718636
0.00721512
0.00719417
0.00696938
0.00698312
0.00720896
0.0072718
0.00721688
0.00721688
0.00721688
0.00721688
0.00721688
0.00721688
0.00721688
0.00721688
0.00721688
0.00721688
0.00721688
0.00721688
0.00721737
0.00721701
0.00721684
0.00721703
0.00721705
0.0072169
0.00721692
0.00721717
0.00721713
0.007217
0.00721486
0.00721783
0.00675496
0.007238
0.00690063
0.00745423
0.00641673
0.0064122
0.00563017
0.00624294
0.00617647
0.0071281
0.00624801
0.00705776
0.00695864
0.00714537
0.00721923
0.0072189
0.00703029
0.00679701
0.00601977
0.0072215
0.00743954
0.00600535
0.00641207
0.00701024
0.00732433
0.00795462
0.00592397
0.00833416
0.00785695
0.0077859
0.00598159
0.00829649
0.00785741
0.00792275
0.00785302
0.00715248
0.0078601
0.00796069
0.00623739
0.00739949
0.00673207
0.00724553
0.00749548
0.00709151
0.00786256
0.00922109
0.00671377
0.00688254
0.00720591
0.00678669
0.00722775
0.00680645
0.00711348
0.00707371
0.00589382
0.00680566
0.00647864
0.00649686
0.00737123
0.00714039
0.00602001
0.00616429
0.00683083
0.00665959
0.00555431
0.00648715
0.00635566
0.00711808
0.00746944
0.00721702
0.00721312
0.00721677
0.00721688
0.00775407
0.00762045
0.0072862
0.00721683
0.00721651
0.00721669
0.00721688
0.00721688
0.00721688
0.00721687
0.00721688
0.00721687
0.00654629
0.00606731
0.00721754
0.0072166
0.00719654
0.00721688
0.00711396
0.00721688
0.0077937
0.00700773
0.00697493
0.00746697
0.00607074
0.00608126
0.00678538
0.00720016
0.00612621
0.00785695
0.00794915
0.0071235
0.00707221
0.00718477
0.00677491
0.00636548
0.00721679
0.00721683
0.00721688
0.00721688
0.00721688
0.00721688
0.00721688
0.00721688
0.00721688
0.00721688
0.00721688
0.00721688
0.00721688
0.00670115
0.00640076
0.00718216
0.00721689
0.00721688
0.00720753
0.00776131
0.00706022
0.00719635
0.00685949
0.00727275
0.00725075
0.00721493
0.006697
0.00590751
0.00683738
0.00635049
0.00721688
0.00675549
0.00621413
0.00713105
0.0071807
0.0069681
0.00761849
0.00698883
0.00702271
0.00642808
0.00665217
0.00644414
0.00644193
0.00740246
0.00735898
0.00719654
0.00707618
0.00720104
0.00760207
0.00763853
0.00750228
0.00781447
0.0067391
0.00695953
0.00753777
0.00752881
0.00735964
0.00730981
0.00732095
0.0071789
0.00720603
0.00709606
0.00721906
0.00729366
0.00721529
0.00718227
0.0078388
0.00733805
0.00736432
0.00727915
0.00723872
0.00767536
0.00791038
0.00757549
0.00731323
0.00728416
0.00758022
0.00649019
0.00770871
0.00714773
0.00688284
0.00658877
0.00717006
0.00718773
0.00673468
0.00701723
0.00710171
0.00731169
0.00771966
0.00716495
0.00721688
0.00646179
0.00672848
0.00644414
0.00719271
0.00767588
0.00775918
0.0058726
0.00627645
0.00662208
0.00659849
0.00749627
0.00710609
0.00702432
0.00717028
0.00780876
0.00601781
0.00795166
0.00638523
0.00601098
0.00769281
0.00643985
0.0074806
0.00715883
0.00797977
0.00695442
0.00721688
0.00721438
0.00719277
0.00721688
0.00721688
0.00721688
0.00721688
0.00721688
0.00721688
0.00721688
0.00721688
0.00721688
0.00721688
0.00664618
0.00728091
0.00721688
0.00721688
0.00721688
0.00721688
0.00721518
0.00721688
0.00721688
0.00721688
0.00721688
0.00721688
0.007216
0.00721688
0.00721644
0.00721688
0.00721637
0.00721644
0.00721692
0.00721685
0.00721688
0.00721691
0.00721688
0.0078201
0.0077327
0.00721678
0.00721698
0.0071545
0.00719751
0.00708881
0.0065477
0.00716634
0.00773841
0.00735577
0.00682473
0.00721688
0.00721688
0.00721688
0.00721688
0.00721686
0.00721689
0.00721486
0.00721688
0.00721688
0.00721688
0.00721688
0.00721688
0.00721739
0.00721732
0.00719702
0.00689391
0.00721688
0.0072267
0.00715217
0.0072416
0.00718249
0.00716825
0.00721303
0.00721688
0.00721688
0.00721688
0.00837827
0.00606851
0.00721688
0.00721688
0.00616718
0.00696677
0.00721692
0.00721688
0.0072239
0.00721688
0.00734571
0.00677599
0.00721688
0.00721688
0.00721688
0.00721688
0.00721688
0.00756546
0.00721688
0.00721696
0.00721162
0.00718094
0.00720402
0.00786123
0.00721688
0.00721688
0.00721686
0.0072169
0.00721688
0.00721688
0.00721696
0.00721666
0.00719267
0.00720481
0.0069876
0.0072171
0.00721692
0.00721731
0.0072171
0.00721699
0.00721328
0.00710075
0.00734548
0.00729795
0.00661364
0.00783805
0.00611043
0.00691675
0.0074064
0.00747629
0.00783805
0.00753296
0.00717765
0.00626054
0.00664424
0.0070097
0.00627519
0.00667146
0.00658316
0.00640145
0.00609901
0.0057964
0.00565393
0.00619393
0.00614957
0.00596265
0.00582831
0.00586288
0.00596599
)
;

boundaryField
{
    back
    {
        type            empty;
        value           nonuniform 0();
    }
    front
    {
        type            empty;
        value           nonuniform 0();
    }
    top
    {
        type            calculated;
        value           uniform 0;
    }
    left
    {
        type            calculated;
        value           uniform 0;
    }
    bottom
    {
        type            calculated;
        value           uniform 0;
    }
    right
    {
        type            calculated;
        value           uniform 0;
    }
}


// ************************************************************************* //
