/*--------------------------------*- C++ -*----------------------------------*\
| =========                 |                                                 |
| \\      /  F ield         | OpenFOAM: The Open Source CFD Toolbox           |
|  \\    /   O peration     | Version:  2.4.0                                 |
|   \\  /    A nd           | Web:      www.OpenFOAM.org                      |
|    \\/     M anipulation  |                                                 |
\*---------------------------------------------------------------------------*/
FoamFile
{
    version     2.0;
    format      ascii;
    class       surfaceVectorField;
    location    "0";
    object      faceAreaVector;
}
// * * * * * * * * * * * * * * * * * * * * * * * * * * * * * * * * * * * * * //

dimensions      [0 2 0 0 0 0 0];

internalField   nonuniform List<vector> 
1456
(
(0.00305021 -0.000966878 0)
(-0.000966878 0.00305021 0)
(0.00416667 0.00416667 0)
(-0.00305021 -0.000966878 1.69407e-21)
(0.000966878 0.00305021 0)
(-0.00416667 0.00416667 0)
(0.000966878 -0.00305021 0)
(-0.00305021 0.000966878 0)
(-0.00416667 -0.00416667 0)
(0.00305021 0.000966878 0)
(-0.000966878 -0.00305021 -1.69407e-21)
(0.00416667 -0.00416667 0)
(0.00377929 -0.000374477 0)
(0.00305021 0.00528312 1.35525e-20)
(-0.00377929 0.00662448 0)
(0.00286398 -5.2243e-05 0)
(0.00377929 0.00587552 -1.35525e-20)
(-0.00286398 0.00630224 0)
(0.00360844 0 0)
(0.00286398 0.00619776 0)
(-0.00360844 0.00625 0)
(0.00334514 0 0)
(-0.00334514 0.00625 0)
(0.00360844 0.00625 0)
(0.00349085 0 0)
(0.00334514 0.00625 0)
(-0.00349085 0.00625 0)
(0.00360844 0 0)
(0.00349085 0.00625 1.35525e-20)
(-0.00360844 0.00625 -1.35525e-20)
(0.00301815 0.000120688 -2.11758e-22)
(-0.00301815 0.00612931 0)
(0.00360844 0.00625 1.35525e-20)
(0.00426837 0.000438115 0)
(0.00301815 0.00637069 0)
(-0.00426837 0.00581189 -1.35525e-20)
(0.00379761 0.000146293 -4.23516e-22)
(-0.00379761 0.00610371 -1.35525e-20)
(0.00426837 0.00668811 2.71051e-20)
(0.00360844 0 0)
(0.00379761 0.00639629 1.35525e-20)
(-0.00360844 0.00625 0)
(0.00360844 0 0)
(-0.00360844 0.00625 0)
(0.00360844 0.00625 0)
(0.0035138 0.000163912 0)
(-0.0035138 0.00608609 0)
(0.00360844 0.00625 0)
(0.00360844 0 0)
(0.0035138 0.00641391 0)
(-0.00360844 0.00625 0)
(0.00335378 1.92565e-06 0)
(-0.00335378 0.00624807 0)
(0.00360844 0.00625 -1.35525e-20)
(0.00365676 3.6988e-05 0)
(0.00335378 0.00625193 1.35525e-20)
(-0.00365676 0.00621301 0)
(0.00349251 -0.000166848 0)
(0.00365676 0.00628699 0)
(-0.00349251 0.00641685 0)
(0.00360844 0 0)
(-0.00360844 0.00625 0)
(0.00349251 0.00608315 0)
(0.0035154 0.000161146 4.23516e-22)
(0.00360844 0.00625 0)
(-0.0035154 0.00608885 1.35525e-20)
(-0.00305021 0.00528312 0)
(0.0035154 0.00641115 -1.35525e-20)
(0.000536996 0.00383753 0)
(-0.00528312 0.00305021 0)
(-0.006787 -0.00383753 0)
(4.72358e-05 0.0027825 0)
(-0.00629724 -0.0027825 1.35525e-20)
(-0.005713 0.00383753 1.35525e-20)
(-3.83417e-05 0.00370226 0)
(-0.00620276 0.0027825 0)
(-0.00621166 -0.00370226 1.35525e-20)
(0 0.00271901 0)
(-0.00625 -0.00271901 1.35525e-20)
(-0.00628834 0.00370226 0)
(-0.000432415 0.00414617 0)
(-0.00625 0.00271901 -1.35525e-20)
(-0.00581758 -0.00414617 0)
(4.29252e-05 0.00365589 0)
(-0.00668242 0.00414617 0)
(-0.00629293 -0.00365589 0)
(0 0.00360844 0)
(-0.00625 -0.00360844 -1.35525e-20)
(-0.00620707 0.00365589 0)
(-0.000204752 0.00373903 -4.23516e-22)
(-0.00625 0.00360844 -1.35525e-20)
(-0.00604525 -0.00373903 0)
(0.00020668 0.00426762 4.23516e-22)
(-0.00645668 -0.00426762 1.35525e-20)
(-0.00645475 0.00373903 1.35525e-20)
(0.000475536 0.00374947 8.47033e-22)
(-0.00604332 0.00426762 -1.35525e-20)
(-0.00672554 -0.00374947 0)
(0.000421266 0.00348938 0)
(-0.00667127 -0.00348938 0)
(-0.00577446 0.00374947 0)
(0 0.00289801 0)
(-0.00625 -0.00289801 1.35525e-20)
(-0.00582873 0.00348938 1.35525e-20)
(-6.05467e-05 0.00309818 -1.05879e-22)
(-0.00625 0.00289801 0)
(-0.00618945 -0.00309818 -1.35525e-20)
(-1.00911e-05 0.00343704 0)
(-0.00623991 -0.00343704 0)
(-0.00631055 0.00309818 1.35525e-20)
(6.44334e-05 0.00364989 0)
(-0.00631443 -0.00364989 0)
(-0.00626009 0.00343704 -1.35525e-20)
(0.000396692 0.00402854 0)
(-0.00618557 0.00364989 0)
(-0.00664669 -0.00402854 -1.35525e-20)
(-2.10003e-05 0.0028122 2.64698e-23)
(-0.006229 -0.0028122 0)
(-0.00585331 0.00402854 0)
(-0.000536626 0.00383817 0)
(-0.006271 0.0028122 1.35525e-20)
(-0.00571337 -0.00383817 0)
(-0.00528312 -0.00305021 -1.35525e-20)
(-0.00678663 0.00383817 -1.35525e-20)
(-0.0035154 0.000161146 -4.23516e-22)
(-0.00305021 -0.00528312 0)
(0.0035154 -0.00641115 0)
(-0.00359293 2.68577e-05 0)
(0.00359293 -0.00627686 -1.35525e-20)
(-0.0035154 -0.00608885 0)
(-0.00360844 0 0)
(-0.00359293 -0.00622314 1.35525e-20)
(0.00360844 -0.00625 -1.35525e-20)
(-0.00360848 7.85e-08 0)
(0.00360848 -0.00625008 -1.35525e-20)
(-0.00360844 -0.00625 1.35525e-20)
(-0.00360849 9.325e-08 0)
(-0.00360848 -0.00624992 0)
(0.00360849 -0.00625009 -1.35525e-20)
(-0.00360844 0 0)
(-0.00360849 -0.00624991 0)
(0.00360844 -0.00625 0)
(-0.00360844 0 0)
(0.00360844 -0.00625 0)
(-0.00360844 -0.00625 0)
(-0.00360844 0 0)
(-0.00360844 -0.00625 0)
(0.00360844 -0.00625 0)
(-0.00360844 0 0)
(0.00360844 -0.00625 0)
(-0.00360844 -0.00625 0)
(-0.00360844 0 0)
(-0.00360844 -0.00625 0)
(0.00360844 -0.00625 0)
(-0.00360844 0 0)
(0.00360844 -0.00625 0)
(-0.00360844 -0.00625 1.35525e-20)
(-0.00360844 0 0)
(0.00360844 -0.00625 0)
(-0.00360844 -0.00625 1.35525e-20)
(-0.00360844 0 0)
(-0.00360844 -0.00625 0)
(0.00360844 -0.00625 0)
(-0.00360847 4.68e-08 1.03398e-25)
(0.00360847 -0.00625005 0)
(-0.00360844 -0.00625 0)
(-0.00360845 1.79e-08 5.16988e-26)
(0.00360845 -0.00625002 0)
(-0.00360847 -0.00624995 0)
(-0.00360844 0 0)
(-0.00360845 -0.00624998 1.35525e-20)
(0.00360844 -0.00625 -1.35525e-20)
(-0.00358878 -3.40542e-05 0)
(0.00358878 -0.00621595 0)
(-0.00360844 -0.00625 0)
(-0.00342199 -0.000127806 0)
(0.00342199 -0.00612219 1.35525e-20)
(-0.00358878 -0.00628405 1.35525e-20)
(0.00305021 -0.00528312 0)
(-0.00342199 -0.00637781 0)
(-0.000382607 -0.00377374 0)
(0.00528312 -0.00305021 0)
(0.00663261 0.00377374 0)
(-0.000125774 -0.00274097 0)
(0.00637577 0.00274097 0)
(0.00586739 -0.00377374 0)
(4.0666e-05 -0.00370282 0)
(0.00612423 -0.00274097 -1.35525e-20)
(0.00620933 0.00370282 1.35525e-20)
(0.000241023 -0.00278736 0)
(0.00600898 0.00278736 1.35525e-20)
(0.00629067 -0.00370282 1.35525e-20)
(0.000671476 -0.00401158 0)
(0.00649102 -0.00278736 0)
(0.00557852 0.00401158 1.35525e-20)
(0 -0.00360844 0)
(0.00692148 -0.00401158 0)
(0.00625 0.00360844 0)
(0.000127493 -0.00358589 0)
(0.00612251 0.00358589 -1.35525e-20)
(0.00625 -0.00360844 -1.35525e-20)
(9.12534e-05 -0.00329762 -2.11758e-22)
(0.00637749 -0.00358589 0)
(0.00615875 0.00329762 0)
(0.000307159 -0.00337265 0)
(0.00594284 0.00337265 0)
(0.00634125 -0.00329762 0)
(0.000182357 -0.00420555 4.23516e-22)
(0.00655716 -0.00337265 0)
(0.00606764 0.00420555 0)
(-0.000140473 -0.00374094 4.23516e-22)
(0.00639047 0.00374094 1.35525e-20)
(0.00643236 -0.00420555 0)
(0 -0.00360844 0)
(0.00625 0.00360844 0)
(0.00610953 -0.00374094 0)
(0 -0.00352128 0)
(0.00625 -0.00360844 1.35525e-20)
(0.00625 0.00352128 1.35525e-20)
(0 -0.00359391 0)
(0.00625 0.00359391 -1.35525e-20)
(0.00625 -0.00352128 1.35525e-20)
(3.80592e-05 -0.00357284 0)
(0.00621194 0.00357284 0)
(0.00625 -0.00359391 0)
(0.000252893 -0.00349018 -4.23516e-22)
(0.00628806 -0.00357284 1.35525e-20)
(0.00599711 0.00349018 0)
(0.000235741 -0.00412026 0)
(0.00601426 0.00412026 -2.71051e-20)
(0.00650289 -0.00349018 0)
(-6.78598e-06 -0.00353402 0)
(0.00648574 -0.00412026 0)
(0.00625679 0.00353402 0)
(0.00528312 0.00305021 1.35525e-20)
(0.00624321 -0.00353402 0)
(-0.00721688 0 0)
(-0.00360844 -0.00625 0)
(0.00721688 0 0)
(0.00360844 -0.00625 0)
(0.00629821 -4.30088e-05 0)
(-0.000593415 -0.00696166 0)
(-0.00153813 0.00700466 0)
(0.00471172 -0.00485086 0)
(0.00406925 0.00521915 -1.35525e-20)
(0.00719728 0 0)
(0.00420111 0.00668964 0)
(-0.00339967 0.00639629 0)
(-0.00780955 -0.000439642 -1.69407e-21)
(-0.00120648 -0.00696245 0)
(-0.00546479 0.00347308 0)
(0.00101743 0.00775655 -6.77626e-21)
(-0.00706075 -0.00348894 0)
(0.00601056 -0.00325582 0)
(0.00011195 0.00684171 -4.23516e-22)
(0.000157395 -0.00776855 0)
(0.00676408 0.00375697 0)
(-0.0072169 3.155e-08 0)
(-0.00360854 -0.00624982 0)
(0.0036084 -0.00624994 0)
(0.00721698 -1.8175e-07 0)
(0.00477979 0.00405631 0)
(-0.00430709 0.00415634 0)
(0.00721396 -0.00191801 0)
(0.000342149 0.00816801 1.69407e-21)
(-0.00755611 -0.00208333 0)
(5.86099e-05 0.00677793 0)
(-0.000549823 -0.00833709 -3.38813e-21)
(-0.00674102 -0.00263176 -1.35525e-20)
(-0.00570018 0.00472865 -1.35525e-20)
(0.00721689 -1.545e-08 5.16988e-26)
(0.00360849 -0.00625009 0)
(-0.00360842 -0.00625003 -1.35525e-20)
(-0.00721693 9.115e-08 -4.1359e-25)
(-1.62288e-06 0.00664271 0)
(0.000286111 -0.00781705 1.69407e-21)
(0.00625162 -0.00304879 1.35525e-20)
(0.00596389 0.00420861 1.35525e-20)
(-0.000802755 0.00642347 -3.38813e-21)
(-0.00637669 0.0020125 0)
(0.000136785 -0.00544954 0)
(-0.00544725 -0.00352545 1.35525e-20)
(0.00439876 0.00408865 0)
(-0.00664907 -0.00098347 0)
(0.00755611 -0.00208333 1.35525e-20)
(-0.000907039 0.00723347 3.38813e-21)
(-0.00423873 0.00440667 0)
(0.00721128 -9.69862e-06 0)
(0.00362322 -0.00622512 1.35525e-20)
(-0.00721616 1.98098e-06 0)
(-0.00360279 -0.00624038 -1.35525e-20)
(0.00391697 0.00545038 0)
(0.00755343 -5.875e-06 0)
(0.00404957 -0.00540399 0)
(-0.00179641 0.00622829 0)
(-0.00159036 -0.00622242 0)
(0.00129375 -0.00663643 -6.77626e-21)
(-0.00033412 0.00673274 0)
(0.00499431 0.00306359 0)
(0.00634838 -0.00261247 1.35525e-20)
(0.00716103 -9.29374e-05 0)
(0.00319793 0.00529336 -1.35525e-20)
(-0.00680637 0.000956636 0)
(-0.00350426 0.00637993 0)
(0.00360517 -0.00624434 0)
(-0.00721362 -5.6463e-06 0)
(-0.0036282 -0.00621577 1.35525e-20)
(0.00721698 -1.764e-07 8.27181e-25)
(-0.00320305 0.00555116 0)
(0.000416119 -0.00679315 -1.69407e-21)
(-0.00504485 -0.00471347 0)
(0.00201746 0.00629542 -6.77626e-21)
(-0.00660025 0.000497736 -1.69407e-21)
(-0.00392306 -0.00525778 0)
(-0.00759089 0.000164778 0)
(-0.00436304 0.00532127 0)
(0.00167468 -0.00625 0)
(0.00174954 0.00608522 0)
(0.00445297 0.00416363 0)
(-0.00493413 0.00411746 0)
(0.00755611 -0.00208333 0)
(-0.000334015 0.00827497 0)
(-0.0072221 -0.00202497 -6.77626e-21)
(-0.00507569 0.00351436 1.35525e-20)
(0.00694256 -1.30244e-05 -5.29396e-23)
(0.00429623 0.00479337 1.35525e-20)
(-0.00721396 -0.00224866 0)
(0.000271403 0.00642835 -8.47033e-22)
(-0.00561785 -0.00332872 0)
(-0.000632149 0.00693716 -3.38813e-21)
(0.000351167 -0.00776628 1.69407e-21)
(-0.00680785 0.00349866 -1.35525e-20)
(0.000286853 -0.00577852 -8.47033e-22)
(0.000319323 0.00662247 0)
(0.00609064 0.00219262 0)
(0.00562352 -0.00324982 0)
(-0.00721688 0 0)
(-0.00360844 -0.00624999 1.35525e-20)
(0.00721688 -6.275e-09 0)
(0.00360844 -0.00625 0)
(-0.00719879 3.1334e-05 0)
(-0.00319369 -0.00660536 1.35525e-20)
(0.00414858 -0.00531446 0)
(0.00678663 0.000328501 0)
(0.0072816 -0.000149511 0)
(0.00344642 -0.00556755 1.35525e-20)
(0.00404581 0.0052583 0)
(-0.00237026 -0.00622829 6.77626e-21)
(-0.000744673 0.00637781 0)
(0.000559336 0.00662226 1.69407e-21)
(0.00472379 -0.00357204 1.35525e-20)
(0.00687312 0.00250421 -1.35525e-20)
(-0.000387376 -0.00662448 1.69407e-21)
(-0.00720137 -2.68577e-05 1.05879e-22)
(-0.00317856 0.00657914 1.35525e-20)
(0.00415116 0.00530998 0)
(0.006787 -0.00032914 0)
(0.00360844 -0.00625 -1.35525e-20)
(-0.00360844 -0.00625 0)
(-0.00721688 0 0)
(-0.00721688 0 0)
(-0.00360844 -0.00625 1.35525e-20)
(0.00360844 -0.00625 0)
(0.00721688 0 0)
(0.00360845 -0.00625002 0)
(-0.00360845 0.00625002 1.35525e-20)
(-0.00360843 -0.00625002 1.35525e-20)
(-0.00721689 1.965e-08 0)
(0.00721688 0 0)
(0.00360844 -0.00625 -1.35525e-20)
(-0.00360843 -0.00625002 0)
(-0.00721688 0 0)
(-0.00360844 -0.00625 0)
(0.00360844 -0.00625 0)
(0.00360844 0.00625 1.35525e-20)
(0.00721688 0 0)
(0.00721688 0 0)
(0.00360844 -0.00625 0)
(-0.00721688 0 0)
(-0.00360844 -0.00625 1.35525e-20)
(-0.00360844 -0.00625 0)
(0.00360844 -0.00625 0)
(0.00721688 0 0)
(0.00360844 0.00625 0)
(0.00721688 0 0)
(0.00360844 -0.00625 -1.35525e-20)
(-0.00360844 -0.00625 -1.35525e-20)
(-0.00721688 0 0)
(-0.00360844 -0.00625 0)
(0.00360844 0.00625 0)
(0.00721688 -2.75e-10 0)
(0.00360844 -0.00625 0)
(-0.00721688 0 0)
(-0.00360844 -0.00625 0)
(0.00360844 -0.00625 0)
(0.00721688 0 0)
(0.00360844 -0.00625 0)
(-0.00360844 -0.00625 1.35525e-20)
(-0.00721688 0 0)
(-0.00360844 0.00625 0)
(0.00721688 0 0)
(0.00360844 -0.00625 0)
(-0.00721688 0 0)
(-0.00360844 -0.00625 0)
(-0.00360844 -0.00625 0)
(0.00360844 -0.00625 0)
(0.00721688 2.75e-10 0)
(0.00360844 0.00625 0)
(0.00721688 0 0)
(0.00360844 -0.00625 0)
(-0.00360844 -0.00625 0)
(-0.00721688 0 0)
(-0.00360844 -0.00625 0)
(0.00360844 0.00625 0)
(0.00721688 0 0)
(0.00360844 -0.00625 0)
(-0.00721688 0 0)
(-0.00360844 -0.00625 0)
(0.00360844 -0.00625 0)
(0.00721688 0 0)
(0.00360844 -0.00625 0)
(-0.00360844 -0.00625 0)
(-0.00360844 0.00625 0)
(-0.00721688 0 0)
(0.00721688 0 0)
(0.00360844 -0.00625 0)
(-0.00360844 -0.00625 0)
(-0.00721688 0 0)
(-0.00360844 -0.00625 0)
(0.00360844 0.00625 0)
(0.00721688 0 0)
(0.00360844 -0.00625 0)
(-0.00721688 0 0)
(-0.00360844 -0.00625 0)
(0.00360844 -0.00625 0)
(0.00721688 0 0)
(0.00360844 -0.00625 0)
(-0.00360844 -0.00625 0)
(-0.00721688 0 0)
(-0.00360844 0.00625 0)
(-0.00721688 0 0)
(0.00721688 0 0)
(-0.00360844 -0.00625 -1.35525e-20)
(0.00360844 -0.00625 1.35525e-20)
(0.00360844 -0.00625 1.35525e-20)
(-0.00360844 -0.00625 0)
(-0.00721688 0 0)
(-0.00360844 0.00625 -1.35525e-20)
(-0.00360844 -0.00625 -1.35525e-20)
(0.00360844 -0.00625 1.35525e-20)
(0.00360844 0.00625 0)
(0.00721688 0 0)
(-0.00721688 0 0)
(-0.00360844 -0.00625 0)
(0.00360844 -0.00625 1.35525e-20)
(0.00721688 0 0)
(-0.00360844 0.00625 1.35525e-20)
(-0.00721688 0 0)
(0.00360844 -0.00625 0)
(-0.00360844 -0.00625 0)
(-0.00360844 -0.00625 0)
(-0.00721688 0 0)
(-0.00360844 0.00625 0)
(0.00360844 0.00625 0)
(-0.00360844 0.00625 0)
(-0.00721688 0 0)
(-0.00360844 -0.00625 0)
(0.00360844 -0.00625 0)
(0.00721688 0 0)
(0.00360844 -0.00625 1.35525e-20)
(-0.00360844 -0.00625 0)
(-0.00721688 0 0)
(-0.00360844 -0.00625 -1.35525e-20)
(-0.00721688 0 0)
(-0.00360844 0.00625 0)
(0.00360844 0.00625 1.35525e-20)
(-0.00360844 0.00625 0)
(-0.00721688 0 0)
(-0.00360844 -0.00625 1.35525e-20)
(0.00360844 -0.00625 0)
(-0.00360877 -0.00624943 -1.35525e-20)
(0.00360844 0.00625 1.35525e-20)
(-0.00360811 0.00624943 -1.35525e-20)
(-0.00721688 0 0)
(0.00360844 -0.00625 0)
(-0.00360872 -0.00624951 0)
(-0.00721721 5.707e-07 0)
(-0.00360816 0.00624951 1.35525e-20)
(-0.00721688 0 0)
(-0.00360844 -0.00625 -1.35525e-20)
(0.00360844 -0.00625 0)
(0.00721688 0 0)
(-0.00721688 0 0)
(-0.00360844 0.00625 -1.35525e-20)
(0.00360844 0.00625 0)
(0.00721688 0 0)
(0.00360844 0.00625 0)
(-0.00360844 0.00625 -1.35525e-20)
(-0.00721655 -5.707e-07 0)
(-0.00360844 -0.00625 0)
(-0.00721688 0 0)
(-0.00360844 0.00625 0)
(0.00721688 0 0)
(0.00360844 0.00625 1.35525e-20)
(0.00360844 0.00625 1.35525e-20)
(-0.00361005 0.0062472 0)
(-0.00360682 -0.0062472 0)
(-0.00721688 0 0)
(-0.00721688 0 0)
(-0.00360844 0.00625 -1.35525e-20)
(0.00721688 0 0)
(0.00360844 0.00625 0)
(0.00360844 -0.00625 0)
(-0.00360844 -0.00625 0)
(-0.00721716 4.8915e-07 -1.65436e-24)
(-0.00360844 0.00625 -1.35525e-20)
(-0.00721688 0 0)
(-0.00360844 -0.00625 0)
(0.00360844 -0.00625 1.35525e-20)
(0.00721688 0 0)
(0.00360844 -0.00625 0)
(0.00721688 1.725e-09 6.46235e-27)
(0.00360844 0.00625 0)
(-0.00360844 0.00625 0)
(0.00360844 0.00625 0)
(0.00721688 0 0)
(0.00360844 -0.00625 0)
(-0.00360844 -0.00625 0)
(0.00360844 -0.00625 0)
(0.00721688 0 0)
(0.00360844 0.00625 0)
(-0.00360844 0.00625 0)
(0.00360844 0.00625 0)
(0.00721688 0 0)
(-0.00360844 -0.00625 0)
(0.00360844 -0.00625 0)
(0.00360844 -0.00625 0)
(0.00721687 1.1575e-08 0)
(-0.00360843 0.00624999 0)
(0.00360844 0.00625 0)
(0.00360844 0.00625 0)
(0.00721688 0 0)
(0.00360844 -0.00625 0)
(-0.00360844 -0.00625 0)
(0.00360844 -0.00625 0)
(0.00721688 0 0)
(0.00360843 0.00625001 -1.35525e-20)
(-0.00360844 0.00625 0)
(-0.00360844 -0.00625 0)
(0.00360844 0.00625 0)
(0.00360844 -0.00625 0)
(0.00721688 0 0)
(0.00721688 0 0)
(0.00360844 -0.00625 0)
(-0.00360844 -0.00625 0)
(-0.00721688 0 0)
(-0.00360844 -0.00625 -1.35525e-20)
(0.00360844 -0.00625 1.35525e-20)
(0.00721688 0 0)
(0.00360844 0.00625 -1.35525e-20)
(0.00721688 0 0)
(0.00360844 -0.00625 1.35525e-20)
(-0.00721688 0 0)
(-0.00360844 -0.00625 -1.35525e-20)
(-0.00360844 -0.00625 -1.35525e-20)
(0.00360844 -0.00625 1.35525e-20)
(0.00360844 0.00625 -1.35525e-20)
(0.00721688 0 0)
(0.00721688 0 0)
(0.00360844 -0.00625 1.35525e-20)
(-0.00360844 -0.00625 -1.35525e-20)
(-0.00721688 0 0)
(-0.00360844 -0.00625 -1.35525e-20)
(0.00360844 -0.00625 0)
(0.00721688 0 0)
(0.00360844 0.00625 -1.35525e-20)
(-0.00721688 0 0)
(0.00719401 0 0)
(-0.00358558 -0.00625 0)
(0.00360844 -0.00625 1.35525e-20)
(0.00360844 -0.00625 1.35525e-20)
(-0.00360844 -0.00625 0)
(-0.00721688 0 0)
(-0.00360844 0.00625 0)
(0.00360844 0.00625 -1.35525e-20)
(0.00719728 0 0)
(0.00358558 -0.00625 1.35525e-20)
(-0.00358884 -0.00625 1.35525e-20)
(0.00360844 -0.00625 1.35525e-20)
(0.00721688 0 0)
(0.00360844 0.00625 -1.35525e-20)
(-0.00360844 0.00625 1.35525e-20)
(0.00360844 0.00625 -1.35525e-20)
(0.00721279 -3.1755e-07 1.65436e-24)
(-0.00360435 -0.00624968 -1.35525e-20)
(0.00358884 -0.00625 -1.35525e-20)
(0.00360844 -0.00625 1.35525e-20)
(0.00721688 0 0)
(-0.00360844 0.00625 1.35525e-20)
(0.00360844 0.00625 -1.35525e-20)
(0.00360844 0.00625 0)
(0.00721581 -9.0325e-07 -3.30872e-24)
(0.00360435 -0.00625032 1.35525e-20)
(-0.00360737 -0.0062491 0)
(0.00360844 -0.00625 1.35525e-20)
(0.00721688 0 0)
(0.00360844 0.00625 -1.35525e-20)
(-0.00360844 0.00625 1.35525e-20)
(0.00360844 0.00625 -1.35525e-20)
(0.00721688 0 0)
(0.00360737 -0.0062509 0)
(-0.00360844 -0.00625 -1.35525e-20)
(-0.00360844 0.00625 1.35525e-20)
(0.00361695 -0.00623525 -1.35525e-20)
(0.00359993 0.00623525 -1.35525e-20)
(0.00721688 0 0)
(0.00721688 0 0)
(0.00360844 0.00625 -1.35525e-20)
(-0.00360844 0.00625 1.35525e-20)
(-0.00721688 0 0)
(-0.00360841 -0.00625005 0)
(0.00360844 -0.00625 0)
(-0.00721687 -1.9675e-08 0)
(-0.00360847 0.00625004 0)
(0.00360844 0.00625 0)
(-0.0036084 0.00624993 0)
(0.00721684 6.95e-08 0)
(-0.00721687 -1.0275e-08 -5.16988e-26)
(-0.00360844 0.00625 0)
(0.00360844 0.00625 0)
(0.00360844 -0.00625 0)
(0.00721688 0 0)
(0.00721688 0 0)
(0.00360826 0.00625032 0)
(-0.0072167 -3.16875e-07 1.65436e-24)
(-0.00360845 0.00625001 0)
(-0.00351662 -0.00609097 -1.35525e-20)
(0.00365952 -0.00616153 -1.35525e-20)
(0.00713358 -0.000144281 -8.47033e-22)
(0.00355736 0.00616153 0)
(0.00720158 -2.65045e-05 -1.05879e-22)
(0.0036977 -0.00609539 0)
(-0.0035942 -0.0062244 0)
(-0.00721433 4.41743e-06 2.64698e-23)
(-0.00656586 0.000110474 0)
(0.00784897 -0.000409358 0)
(0.00296151 -0.00636016 0)
(-0.0042634 -0.00584064 0)
(-0.00360844 -0.00625 0)
(0.00360844 -0.00625 0)
(0.00721688 0 0)
(0.00360844 0.00625 0)
(0.00721688 0 0)
(-0.00721688 0 0)
(-0.00360844 -0.00625 0)
(0.00360844 -0.00625 0)
(-0.00360844 0.00625 1.35525e-20)
(0.00360844 0.00625 -1.35525e-20)
(0.00720837 -1.47455e-05 -5.29396e-23)
(0.00360844 -0.00625 1.35525e-20)
(0.00360844 0.00625 1.35525e-20)
(-0.00360844 0.00625 -1.35525e-20)
(-0.00721849 -2.79622e-06 0)
(-0.00360844 -0.00625 1.35525e-20)
(-0.00721688 0 0)
(-0.00360844 0.00625 -1.35525e-20)
(0.00360844 0.00625 1.35525e-20)
(0.00721688 0 0)
(-0.00358457 -0.00620079 0)
(0.00360674 -0.00624707 1.35525e-20)
(-0.00363198 0.00620021 0)
(-0.00721357 -1.38725e-07 0)
(0.00360267 -0.00624 0)
(-0.00360844 0.00625 0)
(-0.0072111 -1.00005e-05 5.29396e-23)
(-0.00360844 -0.00625 1.35525e-20)
(0.00721688 0 0)
(0.00360844 -0.00625 0)
(-0.00361421 -0.00624 0)
(-0.00721688 0 0)
(-0.00360844 -0.00625 0)
(0.00360844 0.00625 0)
(0.00721688 0 0)
(0.00360844 -0.00625 0)
(-0.00721688 0 0)
(-0.00360844 -0.00625 0)
(0.00360844 -0.00625 0)
(0.00721688 0 0)
(0.00360844 -0.00625 0)
(-0.00364308 -0.00619 0)
(-0.00722265 1.00005e-05 0)
(-0.0035738 0.00619 1.35525e-20)
(0.00721633 0 0)
(-0.00721688 0 0)
(-0.00360789 -0.00625 0)
(0.00360844 -0.00625 0)
(-0.00360037 -0.00624434 1.35525e-20)
(0.00360793 0.00624911 0)
(0.0072088 -5.6648e-06 0)
(0.00360841 -0.00624911 0)
(-0.00712224 0.000163912 0)
(-0.00360844 -0.00625 0)
(0.00353667 -0.00641391 0)
(0.00721688 0 0)
(-0.0035776 0.00619659 0)
(0.00360844 0.00625 0)
(0.00718604 5.34108e-05 0)
(0.00360844 -0.00625 0)
(0.00721174 8.9018e-06 0)
(0.00363842 0.00619807 -1.35525e-20)
(-0.00360348 0.00624142 1.35525e-20)
(-0.00721602 -1.48363e-06 0)
(-0.00360844 -0.00625 0)
(-0.00721688 0 0)
(-0.00360872 0.00625049 0)
(0.00360844 0.00625 1.35525e-20)
(-0.00360844 0.00625 0)
(-0.00721688 0 0)
(-0.00360844 -0.00625 0)
(0.00360844 -0.00625 -1.35525e-20)
(-0.00721688 0 0)
(0.00721688 0 0)
(0.00360844 0.00625 -1.35525e-20)
(-0.00360844 0.00625 0)
(-0.00360844 -0.00625 -1.35525e-20)
(-0.00721688 0 0)
(0.00360844 0.00625 -1.35525e-20)
(-0.00360844 0.00625 0)
(0.00360844 -0.00625 0)
(-0.00346338 0.0060322 0)
(-0.0037535 -0.0060322 0)
(-0.00725152 6.0003e-05 2.11758e-22)
(-0.00329333 -0.00639148 0)
(0.00287791 0.00521695 0)
(0.00432367 -0.00524345 0)
(0.00695285 0.000229957 0)
(0.00360844 0.00625 0)
(0.00721688 0 0)
(0.00360844 -0.00625 0)
(-0.00360844 -0.00625 0)
(0.00359014 0.00623749 -1.35525e-20)
(-0.0036008 -0.00623677 0)
(-0.00719858 1.25059e-05 0)
(-0.00361608 0.00623677 -1.35525e-20)
(0.00721688 0 0)
(0.00360844 0.00625 1.35525e-20)
(-0.00362674 0.00623749 1.35525e-20)
(-0.00721688 0 0)
(0.00360844 -0.00625 1.35525e-20)
(0.00721452 4.07613e-06 0)
(-0.00360609 0.00624592 1.35525e-20)
(0.00360844 0.00625 0)
(-0.00360844 0.00625 -1.35525e-20)
(0.00360844 0.00625 0)
(0.00721688 0 0)
(0.00360844 -0.00625 0)
(-0.00721688 0 0)
(-0.00360835 0.00624984 0)
(0.00721679 1.5695e-07 -8.27181e-25)
(0.00360844 0.00625 1.35525e-20)
(0.00359296 0.00627681 1.35525e-20)
(-0.00366477 0.00626755 -1.35525e-20)
(-0.0072197 -3.93139e-05 0)
(-0.00355211 -0.00626755 1.35525e-20)
(-0.0072143 -4.468e-06 0)
(-0.00362349 0.00627606 1.35525e-20)
(0.00360595 0.00625431 0)
(0.00721645 7.44675e-07 0)
(0.00360844 -0.00625 0)
(-0.00360844 -0.00625 0)
(-0.00721688 0 0)
(-0.00360844 0.00625 0)
(0.00359267 -0.00627732 -1.35525e-20)
(-0.00351643 -0.00609064 0)
(-0.00360581 0.00625455 0)
(-0.00720111 2.73186e-05 0)
(0.00360843 -0.00624998 -1.35525e-20)
(0.00721687 1.06e-08 0)
(-0.00360843 0.00624999 0)
(0.00360845 0.00624998 0)
(-0.00719728 0 0)
(-0.00360517 -0.00625 -1.35525e-20)
(0.00358939 -0.00625 0)
(0.00721361 0 0)
(-0.0072139 5.15365e-06 0)
(0.00753169 -0.000196626 8.47033e-22)
(-0.00383398 -0.00589876 -1.35525e-20)
(0.00392057 -0.00639664 0)
(0.00360322 -0.00622509 -1.35525e-20)
(-0.00360931 -0.00624585 -1.35525e-20)
(-0.00719743 6.91925e-07 3.30872e-24)
(-0.00360459 0.006251 -1.35525e-20)
(-0.00766809 1.06911e-05 0)
(0.00664468 -0.00086252 0)
(-0.00305201 -0.0054148 1.35525e-20)
(0.00405965 -0.00626069 -1.35525e-20)
(0.00368101 -0.00625633 0)
(-0.00405965 -0.00623931 -1.35525e-20)
(-0.00719745 0.000165694 0)
(-0.00360844 0.00625 0)
(0.00360844 -0.00625 0)
(0.00721688 0 0)
(0.00360844 0.00625 0)
(-0.00360844 0.00625 0)
(0.00360844 0.00625 1.35525e-20)
(-0.00355905 -0.00594292 0)
(-0.0036636 0.00595292 0)
(-0.00707182 -0.000217803 0)
(-0.00372745 0.00602961 0)
(0.00349894 0.00538632 0)
(0.00660536 -0.000812659 -3.38813e-21)
(0.00363463 -0.0055306 1.35525e-20)
(0.00358558 -0.00625 1.35525e-20)
(-0.00381244 -0.00650696 1.35525e-20)
(-0.00733907 0.000217803 0)
(-0.00338484 0.00650696 0)
(0.00543249 0.00215068 -6.77626e-21)
(-0.0040659 -0.00522053 0)
(0.00062362 0.00639487 0)
(0.00712723 -0.00312515 1.35525e-20)
(0.00273791 -0.00563995 0)
(0.00358995 0.00628202 0)
(-0.00352268 -0.00629049 0)
(-0.00369162 0.00628602 0)
(-0.00725472 -1.4474e-05 -5.29396e-23)
(-0.00373037 0.0061862 0)
(0.00373163 -0.00609959 0)
(0.00348011 0.00610849 1.35525e-20)
(0.00733881 6.37963e-05 2.11758e-22)
(-0.00366656 0.00614934 1.35525e-20)
(-0.00721893 -3.55133e-06 0)
(-0.00355194 -0.00615213 0)
(0.00361813 -0.00623322 0)
(0.00721638 8.68775e-07 0)
(-0.00723222 2.00714e-05 0)
(0.00360873 0.00625599 0)
(-0.00362642 0.00628115 0)
(-0.00361086 0.0062542 0)
(0.00360804 0.0062507 -1.35525e-20)
(0.00721681 1.1195e-07 0)
(0.00360834 -0.00624983 0)
(0.00360844 0.00625 1.35525e-20)
(0.00360844 -0.00625 0)
(-0.00360844 0.00625 0)
(0.00721688 0 0)
(0.00360844 -0.00625 -1.35525e-20)
(0.00721686 2.815e-08 0)
(0.00360835 0.00625016 -1.35525e-20)
(-0.00360842 0.00624997 0)
(0.00360844 -0.00625 0)
(-0.00360844 0.00625 1.35525e-20)
(-0.00721688 0 0)
(-0.00360844 -0.00625 -1.35525e-20)
(-0.00721688 0 0)
(-0.00360844 -0.00625 0)
(0.00721688 0 0)
(0.00360844 -0.00625 0)
(0.00360844 -0.00625 0)
(-0.00360844 -0.00625 0)
(-0.00721688 0 0)
(-0.00360844 0.00625 0)
(-0.00721588 -1.7309e-06 0)
(0.00726807 -3.90594e-05 2.11758e-22)
(-0.00362965 0.00623713 0)
(0.00348551 0.00618793 0)
(0.00361327 0.00624163 0)
(-0.00360763 0.00624861 -1.35525e-20)
(-0.00721675 -2.18875e-07 8.27181e-25)
(-0.00360824 -0.00625034 1.35525e-20)
(-0.00721943 -4.41743e-06 0)
(-0.00346588 -0.00617234 0)
(0.00338545 -0.00589435 0)
(0.00706911 -5.27519e-05 2.11758e-22)
(-0.00368243 0.00614045 -1.35525e-20)
(-0.00717693 -0.000119842 0)
(0.00365426 -0.00617064 0)
(-0.00353727 -0.00617976 0)
(0.00722287 0.000152249 -8.47033e-22)
(-0.00349125 -0.00625184 1.35525e-20)
(0.00411975 -0.00698743 -1.35525e-20)
(0.00306629 0.00704084 -1.35525e-20)
(-0.00368106 -0.00612422 0)
(0.00400662 0.00682678 -1.35525e-20)
(0.00321026 -0.00682678 0)
(0.0072895 -0.000125777 0)
(0.00722898 -2.09629e-05 0)
(0.00353784 -0.00612772 0)
(-0.0072189 3.49383e-06 1.32349e-23)
(-0.00362054 -0.00622904 -1.35525e-20)
(-0.00363396 0.00638525 1.35525e-20)
(-0.00732025 3.19544e-05 1.05879e-22)
(-0.00359826 -0.00636517 0)
(0.00362862 0.00625406 1.35525e-20)
(-0.00385714 0.00623147 0)
(0.00283576 0.00623433 0)
(0.00443231 -0.00627338 0)
(0.00733725 -0.000122976 0)
(0.0072172 -5.5505e-07 0)
(0.00360849 0.00624991 0)
(-0.00360846 0.00625655 -1.35525e-20)
(-0.00721936 4.2916e-06 0)
(0.00721688 0 0)
(0.00360844 -0.00625 0)
(0.00360844 0.00625 0)
(-0.00360844 -0.00625 1.35525e-20)
(0.00721688 0 0)
(0.00360844 0.00625 -1.35525e-20)
(-0.00360844 0.00625 1.35525e-20)
(-0.00721688 0 0)
(0.00360844 0.00625 0)
(-0.00360888 -0.00625076 -1.35525e-20)
(-0.003608 0.00625076 1.35525e-20)
(-0.00721425 4.5531e-06 0)
(-0.00360844 -0.00625 1.35525e-20)
(-0.00721688 0 0)
(-0.00360844 0.00625 -1.35525e-20)
(0.00360844 0.00625 -1.35525e-20)
(0.00359705 0.00614472 0)
(0.00709787 -0.000220393 0)
(-0.00348943 -0.00602961 0)
(0.00361132 -0.00615946 0)
(0.00377542 -0.00681705 0)
(0.00720549 -0.000105283 0)
(-0.00360844 0.00625 1.35525e-20)
(0.0034391 0.00682113 0)
(0.00360844 -0.00625 0)
(-0.00721688 0 0)
(0.00721688 0 0)
(-0.00360844 -0.00625 0)
(0.00721688 0 0)
(-0.00360844 0.00625 0)
(0.00360844 -0.00625 1.35525e-20)
(0.00360844 0.00625 0)
(-0.00346668 -0.00681478 0)
(-0.00722918 -2.1308e-05 0)
(0.00356262 0.00617064 1.35525e-20)
(-0.0037319 0.00682729 0)
(0.0048414 -0.00395275 0)
(0.00295742 0.00613953 1.35525e-20)
(-0.000335921 -0.00696951 1.69407e-21)
(0.00700347 0.00194032 0)
(-0.00428502 -0.00443402 0)
(-0.00360844 0.00625 0)
(-0.00721688 0 0)
(0.00360844 -0.00625 -1.35525e-20)
(-0.00360267 -0.00626 -1.35525e-20)
(0.00366944 0.00614434 0)
(-0.00340512 0.00683566 0)
(-0.00727788 0.000105659 4.23516e-22)
(-0.00381176 -0.00683566 1.35525e-20)
(-0.00722705 1.76098e-05 0)
(-0.00354913 0.00614728 -1.35525e-20)
(0.00361832 0.00623288 1.35525e-20)
(0.00721857 -2.93498e-06 1.32349e-23)
(-0.00721688 0 0)
(-0.00360642 0.00624651 0)
(0.00361079 0.00624592 -1.35525e-20)
(0.00721486 3.49383e-06 0)
(0.00360883 -0.00625067 0)
(-0.00360889 0.00625078 0)
(0.00721692 -7.775e-08 0)
(0.00360837 0.00625012 0)
(0.00360831 0.00625022 0)
(0.0036085 -0.00625011 0)
(-0.00360803 -0.00625072 0)
(0.00721685 4.48e-08 0)
(-0.00721752 1.10585e-06 0)
(-0.00360947 0.00624855 1.35525e-20)
(0.00358787 0.00623603 1.35525e-20)
(0.00722274 -6.92085e-06 -2.64698e-23)
(-0.00360921 -0.00624866 0)
(-0.00721697 1.54825e-07 0)
(0.00360933 0.00624845 1.35525e-20)
(-0.00360831 0.00624977 1.35525e-20)
(-0.00360818 0.00624954 0)
(-0.00721683 -7.59e-08 4.1359e-25)
(-0.00360858 -0.00624976 1.35525e-20)
(0.00360762 -0.00624859 0)
(-0.00360861 -0.0062497 0)
(-0.00721691 4.8775e-08 0)
(-0.00360836 0.00624986 1.35525e-20)
(0.00360873 0.0062495 -1.35525e-20)
(-0.00360837 0.00624987 0)
(0.00360825 -0.00624967 0)
(-0.00721686 -2.7325e-08 1.03398e-25)
(-0.00360847 -0.00624995 0)
(-0.00360848 -0.00624993 0)
(-0.00360843 0.00624998 0)
(-0.00721689 1.34e-08 0)
(0.00360852 0.00624986 1.35525e-20)
(-0.00389137 0.00588233 1.35525e-20)
(-0.0070243 -7.70912e-05 4.23516e-22)
(0.00341499 -0.00616876 0)
(-0.00332806 -0.00588675 -1.35525e-20)
(-0.00354121 0.00597234 0)
(0.00343119 0.00596779 0)
(0.00754783 0.000854438 0)
(0.00378569 -0.00596779 0)
(-0.00669492 0.000745676 0)
(0.00479419 -0.00329112 -1.35525e-20)
(-0.000284288 -0.00658335 8.47033e-22)
(0.00705807 0.0018076 0)
(-0.00424405 -0.00434994 0)
(-0.00360094 0.00625106 0)
(-0.00755903 0.000165327 0)
(-0.00309398 -0.00550538 0)
(0.00349938 -0.00640464 -1.35525e-20)
(-0.00697488 -3.03845e-06 1.32349e-23)
(0.00721688 0 0)
(0.00336971 -0.00624696 -1.35525e-20)
(-0.0036313 -0.00625 0)
(-0.00380001 0.00622584 0)
(-0.00777449 -0.00031532 1.69407e-21)
(-0.00317487 -0.00622888 1.35525e-20)
(0.00396205 -0.00619164 0)
(-0.00362804 -0.00625 0)
(0.00363255 -0.00624527 0)
(0.00358433 0.00624527 0)
(0.00721742 0 0)
(0.00356429 0.00599154 -1.35525e-20)
(-0.0040914 -0.00553834 0)
(-0.00313564 0.00555595 0)
(-0.00696941 0.000844117 0)
(-0.00701406 0.000152934 0)
(0.00719334 -4.97852e-05 0)
(-0.00362905 0.00604132 0)
(0.00346493 0.00599434 0)
(-0.00565659 0.00335322 0)
(-0.0061079 -0.00290177 0)
(0.0036469 -0.00585729 0)
(-0.00204325 -0.00680823 0)
(-0.00120843 0.00678139 6.77626e-21)
(0.00397994 -0.00574596 0)
(-0.00477751 0.00589075 0)
(-0.00244142 -0.00589431 0)
(-0.00744662 -0.00106882 0)